
             +---------------------------------------------------+
             |                                                   |
             |                   WANNIER90                       |
             |                                                   |
             +---------------------------------------------------+
             |                                                   |
             |        Welcome to the Maximally-Localized         |
             |        Generalized Wannier Functions code         |
             |            http://www.wannier.org                 |
             |                                                   |
             |                                                   |
             |  Wannier90 Developer Group:                       |
             |    Giovanni Pizzi    (EPFL)                       |
             |    Valerio Vitale    (Cambridge)                  |
             |    David Vanderbilt  (Rutgers University)         |
             |    Nicola Marzari    (EPFL)                       |
             |    Ivo Souza         (Universidad del Pais Vasco) |
             |    Arash A. Mostofi  (Imperial College London)    |
             |    Jonathan R. Yates (University of Oxford)       |
             |                                                   |
             |  For the full list of Wannier90 3.x authors,      |
             |  please check the code documentation and the      |
             |  README on the GitHub page of the code            |
             |                                                   |
             |                                                   |
             |  Please cite                                      |
             |                                                   |
             |  [ref] "Wannier90 as a community code:            |
             |        new features and applications",            |
             |        G. Pizzi et al., J. Phys. Cond. Matt. 32,  |
             |        165902 (2020).                             |
             |        http://doi.org/10.1088/1361-648X/ab51ff    |
             |                                                   |
             |  in any publications arising from the use of      |
             |  this code. For the method please cite            |
             |                                                   |
             |  [ref] "Maximally Localized Generalised Wannier   |
             |         Functions for Composite Energy Bands"     |
             |         N. Marzari and D. Vanderbilt              |
             |         Phys. Rev. B 56 12847 (1997)              |
             |                                                   |
             |  [ref] "Maximally Localized Wannier Functions     |
             |         for Entangled Energy Bands"               |
             |         I. Souza, N. Marzari and D. Vanderbilt    |
             |         Phys. Rev. B 65 035109 (2001)             |
             |                                                   |
             |                                                   |
             | Copyright (c) 1996-2020                           |
             |        The Wannier90 Developer Group and          |
             |        individual contributors                    |
             |                                                   |
             |      Release: 3.1.0        5th March    2020      |
             |                                                   |
             | This program is free software; you can            |
             | redistribute it and/or modify it under the terms  |
             | of the GNU General Public License as published by |
             | the Free Software Foundation; either version 2 of |
             | the License, or (at your option) any later version|
             |                                                   |
             | This program is distributed in the hope that it   |
             | will be useful, but WITHOUT ANY WARRANTY; without |
             | even the implied warranty of MERCHANTABILITY or   |
             | FITNESS FOR A PARTICULAR PURPOSE. See the GNU     |
             | General Public License for more details.          |
             |                                                   |
             | You should have received a copy of the GNU General|
             | Public License along with this program; if not,   |
             | write to the Free Software Foundation, Inc.,      |
             | 675 Mass Ave, Cambridge, MA 02139, USA.           |
             |                                                   |
             +---------------------------------------------------+
             |    Execution started on 29Nov2022 at 01:17:38     |
             +---------------------------------------------------+
 
 ******************************************************************************
 * -> Using CODATA 2006 constant values                                       *
 *    (http://physics.nist.gov/cuu/Constants/index.html)                      *
 * -> Using Bohr value from CODATA                                            *
 ******************************************************************************
 

 Running in serial (with serial executable)

                                    ------
                                    SYSTEM
                                    ------

                              Lattice Vectors (Ang)
                    a_1    -0.000000  -0.000000   2.969203
                    a_2     4.653272  -0.000000   0.000000
                    a_3     0.000000   4.653272   0.000000

                   Unit Cell Volume:      64.29198  (Ang^3)

                        Reciprocal-Space Vectors (Ang^-1)
                    b_1    -0.000000   0.000000   2.116118
                    b_2     1.350273  -0.000000   0.000000
                    b_3     0.000000   1.350273   0.000000
  
 *----------------------------------------------------------------------------*
 |   Site       Fractional Coordinate          Cartesian Coordinate (Ang)     |
 +----------------------------------------------------------------------------+
 | Ti   1   0.50000   0.50000   0.50000   |    2.32664   2.32664   1.48460    |
 | Ti   2   0.00000   0.00000   0.00000   |    0.00000   0.00000   0.00000    |
 | O    1   0.50000   0.19542   0.80458   |    0.90934   3.74393   1.48460    |
 | O    2   0.50000   0.80458   0.19542   |    3.74393   0.90934   1.48460    |
 | O    3   0.00000   0.30458   0.30458   |    1.41729   1.41729   0.00000    |
 | O    4   0.00000   0.69542   0.69542   |    3.23598   3.23598   0.00000    |
 *----------------------------------------------------------------------------*
                                -----------
                                PROJECTIONS
                                -----------
  
 +----------------------------------------------------------------------------+
 |     Frac. Coord.   l mr  r        z-axis               x-axis          Z/a |
 +----------------------------------------------------------------------------+
 |  0.50  0.50  0.50  2  1  1  0.000  0.000  1.000  1.000  0.000  0.000   1.0 |
 |  0.50  0.50  0.50  2  2  1  0.000  0.000  1.000  1.000  0.000  0.000   1.0 |
 |  0.50  0.50  0.50  2  3  1  0.000  0.000  1.000  1.000  0.000  0.000   1.0 |
 |  0.50  0.50  0.50  2  4  1  0.000  0.000  1.000  1.000  0.000  0.000   1.0 |
 |  0.50  0.50  0.50  2  5  1  0.000  0.000  1.000  1.000  0.000  0.000   1.0 |
 |  0.00  0.00  0.00  2  1  1  0.000  0.000  1.000  1.000  0.000  0.000   1.0 |
 |  0.00  0.00  0.00  2  2  1  0.000  0.000  1.000  1.000  0.000  0.000   1.0 |
 |  0.00  0.00  0.00  2  3  1  0.000  0.000  1.000  1.000  0.000  0.000   1.0 |
 |  0.00  0.00  0.00  2  4  1  0.000  0.000  1.000  1.000  0.000  0.000   1.0 |
 |  0.00  0.00  0.00  2  5  1  0.000  0.000  1.000  1.000  0.000  0.000   1.0 |
 |  0.50  0.20  0.80  1  1  1  0.000  0.000  1.000  1.000  0.000  0.000   1.0 |
 |  0.50  0.20  0.80  1  2  1  0.000  0.000  1.000  1.000  0.000  0.000   1.0 |
 |  0.50  0.20  0.80  1  3  1  0.000  0.000  1.000  1.000  0.000  0.000   1.0 |
 |  0.50  0.80  0.20  1  1  1  0.000  0.000  1.000  1.000  0.000  0.000   1.0 |
 |  0.50  0.80  0.20  1  2  1  0.000  0.000  1.000  1.000  0.000  0.000   1.0 |
 |  0.50  0.80  0.20  1  3  1  0.000  0.000  1.000  1.000  0.000  0.000   1.0 |
 |  0.00  0.30  0.30  1  1  1  0.000  0.000  1.000  1.000  0.000  0.000   1.0 |
 |  0.00  0.30  0.30  1  2  1  0.000  0.000  1.000  1.000  0.000  0.000   1.0 |
 |  0.00  0.30  0.30  1  3  1  0.000  0.000  1.000  1.000  0.000  0.000   1.0 |
 |  0.00  0.70  0.70  1  1  1  0.000  0.000  1.000  1.000  0.000  0.000   1.0 |
 |  0.00  0.70  0.70  1  2  1  0.000  0.000  1.000  1.000  0.000  0.000   1.0 |
 |  0.00  0.70  0.70  1  3  1  0.000  0.000  1.000  1.000  0.000  0.000   1.0 |
 +----------------------------------------------------------------------------+
  
                                ------------
                                K-POINT GRID
                                ------------
  
             Grid size =  7 x  7 x  7      Total points =  343
  
 *----------------------------------------------------------------------------*
 | k-point      Fractional Coordinate        Cartesian Coordinate (Ang^-1)    |
 +----------------------------------------------------------------------------+
 |     1    0.00000   0.00000   0.00000   |    0.00000   0.00000   0.00000    |
 |     2    0.00000   0.00000   0.14286   |    0.00000   0.19290   0.00000    |
 |     3    0.00000   0.00000   0.28571   |    0.00000   0.38579   0.00000    |
 |     4    0.00000   0.00000   0.42857   |    0.00000   0.57869   0.00000    |
 |     5    0.00000   0.00000   0.57143   |    0.00000   0.77158   0.00000    |
 |     6    0.00000   0.00000   0.71429   |    0.00000   0.96448   0.00000    |
 |     7    0.00000   0.00000   0.85714   |    0.00000   1.15738   0.00000    |
 |     8    0.00000   0.14286   0.00000   |    0.19290   0.00000   0.00000    |
 |     9    0.00000   0.14286   0.14286   |    0.19290   0.19290   0.00000    |
 |    10    0.00000   0.14286   0.28571   |    0.19290   0.38579   0.00000    |
 |    11    0.00000   0.14286   0.42857   |    0.19290   0.57869   0.00000    |
 |    12    0.00000   0.14286   0.57143   |    0.19290   0.77158   0.00000    |
 |    13    0.00000   0.14286   0.71429   |    0.19290   0.96448   0.00000    |
 |    14    0.00000   0.14286   0.85714   |    0.19290   1.15738   0.00000    |
 |    15    0.00000   0.28571   0.00000   |    0.38579   0.00000   0.00000    |
 |    16    0.00000   0.28571   0.14286   |    0.38579   0.19290   0.00000    |
 |    17    0.00000   0.28571   0.28571   |    0.38579   0.38579   0.00000    |
 |    18    0.00000   0.28571   0.42857   |    0.38579   0.57869   0.00000    |
 |    19    0.00000   0.28571   0.57143   |    0.38579   0.77158   0.00000    |
 |    20    0.00000   0.28571   0.71429   |    0.38579   0.96448   0.00000    |
 |    21    0.00000   0.28571   0.85714   |    0.38579   1.15738   0.00000    |
 |    22    0.00000   0.42857   0.00000   |    0.57869   0.00000   0.00000    |
 |    23    0.00000   0.42857   0.14286   |    0.57869   0.19290   0.00000    |
 |    24    0.00000   0.42857   0.28571   |    0.57869   0.38579   0.00000    |
 |    25    0.00000   0.42857   0.42857   |    0.57869   0.57869   0.00000    |
 |    26    0.00000   0.42857   0.57143   |    0.57869   0.77158   0.00000    |
 |    27    0.00000   0.42857   0.71429   |    0.57869   0.96448   0.00000    |
 |    28    0.00000   0.42857   0.85714   |    0.57869   1.15738   0.00000    |
 |    29    0.00000   0.57143   0.00000   |    0.77158   0.00000   0.00000    |
 |    30    0.00000   0.57143   0.14286   |    0.77158   0.19290   0.00000    |
 |    31    0.00000   0.57143   0.28571   |    0.77158   0.38579   0.00000    |
 |    32    0.00000   0.57143   0.42857   |    0.77158   0.57869   0.00000    |
 |    33    0.00000   0.57143   0.57143   |    0.77158   0.77158   0.00000    |
 |    34    0.00000   0.57143   0.71429   |    0.77158   0.96448   0.00000    |
 |    35    0.00000   0.57143   0.85714   |    0.77158   1.15738   0.00000    |
 |    36    0.00000   0.71429   0.00000   |    0.96448   0.00000   0.00000    |
 |    37    0.00000   0.71429   0.14286   |    0.96448   0.19290   0.00000    |
 |    38    0.00000   0.71429   0.28571   |    0.96448   0.38579   0.00000    |
 |    39    0.00000   0.71429   0.42857   |    0.96448   0.57869   0.00000    |
 |    40    0.00000   0.71429   0.57143   |    0.96448   0.77158   0.00000    |
 |    41    0.00000   0.71429   0.71429   |    0.96448   0.96448   0.00000    |
 |    42    0.00000   0.71429   0.85714   |    0.96448   1.15738   0.00000    |
 |    43    0.00000   0.85714   0.00000   |    1.15738   0.00000   0.00000    |
 |    44    0.00000   0.85714   0.14286   |    1.15738   0.19290   0.00000    |
 |    45    0.00000   0.85714   0.28571   |    1.15738   0.38579   0.00000    |
 |    46    0.00000   0.85714   0.42857   |    1.15738   0.57869   0.00000    |
 |    47    0.00000   0.85714   0.57143   |    1.15738   0.77158   0.00000    |
 |    48    0.00000   0.85714   0.71429   |    1.15738   0.96448   0.00000    |
 |    49    0.00000   0.85714   0.85714   |    1.15738   1.15738   0.00000    |
 |    50    0.14286   0.00000   0.00000   |    0.00000   0.00000   0.30230    |
 |    51    0.14286   0.00000   0.14286   |    0.00000   0.19290   0.30230    |
 |    52    0.14286   0.00000   0.28571   |    0.00000   0.38579   0.30230    |
 |    53    0.14286   0.00000   0.42857   |    0.00000   0.57869   0.30230    |
 |    54    0.14286   0.00000   0.57143   |    0.00000   0.77158   0.30230    |
 |    55    0.14286   0.00000   0.71429   |    0.00000   0.96448   0.30230    |
 |    56    0.14286   0.00000   0.85714   |    0.00000   1.15738   0.30230    |
 |    57    0.14286   0.14286   0.00000   |    0.19290   0.00000   0.30230    |
 |    58    0.14286   0.14286   0.14286   |    0.19290   0.19290   0.30230    |
 |    59    0.14286   0.14286   0.28571   |    0.19290   0.38579   0.30230    |
 |    60    0.14286   0.14286   0.42857   |    0.19290   0.57869   0.30230    |
 |    61    0.14286   0.14286   0.57143   |    0.19290   0.77158   0.30230    |
 |    62    0.14286   0.14286   0.71429   |    0.19290   0.96448   0.30230    |
 |    63    0.14286   0.14286   0.85714   |    0.19290   1.15738   0.30230    |
 |    64    0.14286   0.28571   0.00000   |    0.38579   0.00000   0.30230    |
 |    65    0.14286   0.28571   0.14286   |    0.38579   0.19290   0.30230    |
 |    66    0.14286   0.28571   0.28571   |    0.38579   0.38579   0.30230    |
 |    67    0.14286   0.28571   0.42857   |    0.38579   0.57869   0.30230    |
 |    68    0.14286   0.28571   0.57143   |    0.38579   0.77158   0.30230    |
 |    69    0.14286   0.28571   0.71429   |    0.38579   0.96448   0.30230    |
 |    70    0.14286   0.28571   0.85714   |    0.38579   1.15738   0.30230    |
 |    71    0.14286   0.42857   0.00000   |    0.57869   0.00000   0.30230    |
 |    72    0.14286   0.42857   0.14286   |    0.57869   0.19290   0.30230    |
 |    73    0.14286   0.42857   0.28571   |    0.57869   0.38579   0.30230    |
 |    74    0.14286   0.42857   0.42857   |    0.57869   0.57869   0.30230    |
 |    75    0.14286   0.42857   0.57143   |    0.57869   0.77158   0.30230    |
 |    76    0.14286   0.42857   0.71429   |    0.57869   0.96448   0.30230    |
 |    77    0.14286   0.42857   0.85714   |    0.57869   1.15738   0.30230    |
 |    78    0.14286   0.57143   0.00000   |    0.77158   0.00000   0.30230    |
 |    79    0.14286   0.57143   0.14286   |    0.77158   0.19290   0.30230    |
 |    80    0.14286   0.57143   0.28571   |    0.77158   0.38579   0.30230    |
 |    81    0.14286   0.57143   0.42857   |    0.77158   0.57869   0.30230    |
 |    82    0.14286   0.57143   0.57143   |    0.77158   0.77158   0.30230    |
 |    83    0.14286   0.57143   0.71429   |    0.77158   0.96448   0.30230    |
 |    84    0.14286   0.57143   0.85714   |    0.77158   1.15738   0.30230    |
 |    85    0.14286   0.71429   0.00000   |    0.96448   0.00000   0.30230    |
 |    86    0.14286   0.71429   0.14286   |    0.96448   0.19290   0.30230    |
 |    87    0.14286   0.71429   0.28571   |    0.96448   0.38579   0.30230    |
 |    88    0.14286   0.71429   0.42857   |    0.96448   0.57869   0.30230    |
 |    89    0.14286   0.71429   0.57143   |    0.96448   0.77158   0.30230    |
 |    90    0.14286   0.71429   0.71429   |    0.96448   0.96448   0.30230    |
 |    91    0.14286   0.71429   0.85714   |    0.96448   1.15738   0.30230    |
 |    92    0.14286   0.85714   0.00000   |    1.15738   0.00000   0.30230    |
 |    93    0.14286   0.85714   0.14286   |    1.15738   0.19290   0.30230    |
 |    94    0.14286   0.85714   0.28571   |    1.15738   0.38579   0.30230    |
 |    95    0.14286   0.85714   0.42857   |    1.15738   0.57869   0.30230    |
 |    96    0.14286   0.85714   0.57143   |    1.15738   0.77158   0.30230    |
 |    97    0.14286   0.85714   0.71429   |    1.15738   0.96448   0.30230    |
 |    98    0.14286   0.85714   0.85714   |    1.15738   1.15738   0.30230    |
 |    99    0.28571   0.00000   0.00000   |    0.00000   0.00000   0.60461    |
 |   100    0.28571   0.00000   0.14286   |    0.00000   0.19290   0.60461    |
 |   101    0.28571   0.00000   0.28571   |    0.00000   0.38579   0.60461    |
 |   102    0.28571   0.00000   0.42857   |    0.00000   0.57869   0.60461    |
 |   103    0.28571   0.00000   0.57143   |    0.00000   0.77158   0.60461    |
 |   104    0.28571   0.00000   0.71429   |    0.00000   0.96448   0.60461    |
 |   105    0.28571   0.00000   0.85714   |    0.00000   1.15738   0.60461    |
 |   106    0.28571   0.14286   0.00000   |    0.19290   0.00000   0.60461    |
 |   107    0.28571   0.14286   0.14286   |    0.19290   0.19290   0.60461    |
 |   108    0.28571   0.14286   0.28571   |    0.19290   0.38579   0.60461    |
 |   109    0.28571   0.14286   0.42857   |    0.19290   0.57869   0.60461    |
 |   110    0.28571   0.14286   0.57143   |    0.19290   0.77158   0.60461    |
 |   111    0.28571   0.14286   0.71429   |    0.19290   0.96448   0.60461    |
 |   112    0.28571   0.14286   0.85714   |    0.19290   1.15738   0.60461    |
 |   113    0.28571   0.28571   0.00000   |    0.38579   0.00000   0.60461    |
 |   114    0.28571   0.28571   0.14286   |    0.38579   0.19290   0.60461    |
 |   115    0.28571   0.28571   0.28571   |    0.38579   0.38579   0.60461    |
 |   116    0.28571   0.28571   0.42857   |    0.38579   0.57869   0.60461    |
 |   117    0.28571   0.28571   0.57143   |    0.38579   0.77158   0.60461    |
 |   118    0.28571   0.28571   0.71429   |    0.38579   0.96448   0.60461    |
 |   119    0.28571   0.28571   0.85714   |    0.38579   1.15738   0.60461    |
 |   120    0.28571   0.42857   0.00000   |    0.57869   0.00000   0.60461    |
 |   121    0.28571   0.42857   0.14286   |    0.57869   0.19290   0.60461    |
 |   122    0.28571   0.42857   0.28571   |    0.57869   0.38579   0.60461    |
 |   123    0.28571   0.42857   0.42857   |    0.57869   0.57869   0.60461    |
 |   124    0.28571   0.42857   0.57143   |    0.57869   0.77158   0.60461    |
 |   125    0.28571   0.42857   0.71429   |    0.57869   0.96448   0.60461    |
 |   126    0.28571   0.42857   0.85714   |    0.57869   1.15738   0.60461    |
 |   127    0.28571   0.57143   0.00000   |    0.77158   0.00000   0.60461    |
 |   128    0.28571   0.57143   0.14286   |    0.77158   0.19290   0.60461    |
 |   129    0.28571   0.57143   0.28571   |    0.77158   0.38579   0.60461    |
 |   130    0.28571   0.57143   0.42857   |    0.77158   0.57869   0.60461    |
 |   131    0.28571   0.57143   0.57143   |    0.77158   0.77158   0.60461    |
 |   132    0.28571   0.57143   0.71429   |    0.77158   0.96448   0.60461    |
 |   133    0.28571   0.57143   0.85714   |    0.77158   1.15738   0.60461    |
 |   134    0.28571   0.71429   0.00000   |    0.96448   0.00000   0.60461    |
 |   135    0.28571   0.71429   0.14286   |    0.96448   0.19290   0.60461    |
 |   136    0.28571   0.71429   0.28571   |    0.96448   0.38579   0.60461    |
 |   137    0.28571   0.71429   0.42857   |    0.96448   0.57869   0.60461    |
 |   138    0.28571   0.71429   0.57143   |    0.96448   0.77158   0.60461    |
 |   139    0.28571   0.71429   0.71429   |    0.96448   0.96448   0.60461    |
 |   140    0.28571   0.71429   0.85714   |    0.96448   1.15738   0.60461    |
 |   141    0.28571   0.85714   0.00000   |    1.15738   0.00000   0.60461    |
 |   142    0.28571   0.85714   0.14286   |    1.15738   0.19290   0.60461    |
 |   143    0.28571   0.85714   0.28571   |    1.15738   0.38579   0.60461    |
 |   144    0.28571   0.85714   0.42857   |    1.15738   0.57869   0.60461    |
 |   145    0.28571   0.85714   0.57143   |    1.15738   0.77158   0.60461    |
 |   146    0.28571   0.85714   0.71429   |    1.15738   0.96448   0.60461    |
 |   147    0.28571   0.85714   0.85714   |    1.15738   1.15738   0.60461    |
 |   148    0.42857   0.00000   0.00000   |    0.00000   0.00000   0.90691    |
 |   149    0.42857   0.00000   0.14286   |    0.00000   0.19290   0.90691    |
 |   150    0.42857   0.00000   0.28571   |    0.00000   0.38579   0.90691    |
 |   151    0.42857   0.00000   0.42857   |    0.00000   0.57869   0.90691    |
 |   152    0.42857   0.00000   0.57143   |    0.00000   0.77158   0.90691    |
 |   153    0.42857   0.00000   0.71429   |    0.00000   0.96448   0.90691    |
 |   154    0.42857   0.00000   0.85714   |    0.00000   1.15738   0.90691    |
 |   155    0.42857   0.14286   0.00000   |    0.19290   0.00000   0.90691    |
 |   156    0.42857   0.14286   0.14286   |    0.19290   0.19290   0.90691    |
 |   157    0.42857   0.14286   0.28571   |    0.19290   0.38579   0.90691    |
 |   158    0.42857   0.14286   0.42857   |    0.19290   0.57869   0.90691    |
 |   159    0.42857   0.14286   0.57143   |    0.19290   0.77158   0.90691    |
 |   160    0.42857   0.14286   0.71429   |    0.19290   0.96448   0.90691    |
 |   161    0.42857   0.14286   0.85714   |    0.19290   1.15738   0.90691    |
 |   162    0.42857   0.28571   0.00000   |    0.38579   0.00000   0.90691    |
 |   163    0.42857   0.28571   0.14286   |    0.38579   0.19290   0.90691    |
 |   164    0.42857   0.28571   0.28571   |    0.38579   0.38579   0.90691    |
 |   165    0.42857   0.28571   0.42857   |    0.38579   0.57869   0.90691    |
 |   166    0.42857   0.28571   0.57143   |    0.38579   0.77158   0.90691    |
 |   167    0.42857   0.28571   0.71429   |    0.38579   0.96448   0.90691    |
 |   168    0.42857   0.28571   0.85714   |    0.38579   1.15738   0.90691    |
 |   169    0.42857   0.42857   0.00000   |    0.57869   0.00000   0.90691    |
 |   170    0.42857   0.42857   0.14286   |    0.57869   0.19290   0.90691    |
 |   171    0.42857   0.42857   0.28571   |    0.57869   0.38579   0.90691    |
 |   172    0.42857   0.42857   0.42857   |    0.57869   0.57869   0.90691    |
 |   173    0.42857   0.42857   0.57143   |    0.57869   0.77158   0.90691    |
 |   174    0.42857   0.42857   0.71429   |    0.57869   0.96448   0.90691    |
 |   175    0.42857   0.42857   0.85714   |    0.57869   1.15738   0.90691    |
 |   176    0.42857   0.57143   0.00000   |    0.77158   0.00000   0.90691    |
 |   177    0.42857   0.57143   0.14286   |    0.77158   0.19290   0.90691    |
 |   178    0.42857   0.57143   0.28571   |    0.77158   0.38579   0.90691    |
 |   179    0.42857   0.57143   0.42857   |    0.77158   0.57869   0.90691    |
 |   180    0.42857   0.57143   0.57143   |    0.77158   0.77158   0.90691    |
 |   181    0.42857   0.57143   0.71429   |    0.77158   0.96448   0.90691    |
 |   182    0.42857   0.57143   0.85714   |    0.77158   1.15738   0.90691    |
 |   183    0.42857   0.71429   0.00000   |    0.96448   0.00000   0.90691    |
 |   184    0.42857   0.71429   0.14286   |    0.96448   0.19290   0.90691    |
 |   185    0.42857   0.71429   0.28571   |    0.96448   0.38579   0.90691    |
 |   186    0.42857   0.71429   0.42857   |    0.96448   0.57869   0.90691    |
 |   187    0.42857   0.71429   0.57143   |    0.96448   0.77158   0.90691    |
 |   188    0.42857   0.71429   0.71429   |    0.96448   0.96448   0.90691    |
 |   189    0.42857   0.71429   0.85714   |    0.96448   1.15738   0.90691    |
 |   190    0.42857   0.85714   0.00000   |    1.15738   0.00000   0.90691    |
 |   191    0.42857   0.85714   0.14286   |    1.15738   0.19290   0.90691    |
 |   192    0.42857   0.85714   0.28571   |    1.15738   0.38579   0.90691    |
 |   193    0.42857   0.85714   0.42857   |    1.15738   0.57869   0.90691    |
 |   194    0.42857   0.85714   0.57143   |    1.15738   0.77158   0.90691    |
 |   195    0.42857   0.85714   0.71429   |    1.15738   0.96448   0.90691    |
 |   196    0.42857   0.85714   0.85714   |    1.15738   1.15738   0.90691    |
 |   197    0.57143   0.00000   0.00000   |    0.00000   0.00000   1.20921    |
 |   198    0.57143   0.00000   0.14286   |    0.00000   0.19290   1.20921    |
 |   199    0.57143   0.00000   0.28571   |    0.00000   0.38579   1.20921    |
 |   200    0.57143   0.00000   0.42857   |    0.00000   0.57869   1.20921    |
 |   201    0.57143   0.00000   0.57143   |    0.00000   0.77158   1.20921    |
 |   202    0.57143   0.00000   0.71429   |    0.00000   0.96448   1.20921    |
 |   203    0.57143   0.00000   0.85714   |    0.00000   1.15738   1.20921    |
 |   204    0.57143   0.14286   0.00000   |    0.19290   0.00000   1.20921    |
 |   205    0.57143   0.14286   0.14286   |    0.19290   0.19290   1.20921    |
 |   206    0.57143   0.14286   0.28571   |    0.19290   0.38579   1.20921    |
 |   207    0.57143   0.14286   0.42857   |    0.19290   0.57869   1.20921    |
 |   208    0.57143   0.14286   0.57143   |    0.19290   0.77158   1.20921    |
 |   209    0.57143   0.14286   0.71429   |    0.19290   0.96448   1.20921    |
 |   210    0.57143   0.14286   0.85714   |    0.19290   1.15738   1.20921    |
 |   211    0.57143   0.28571   0.00000   |    0.38579   0.00000   1.20921    |
 |   212    0.57143   0.28571   0.14286   |    0.38579   0.19290   1.20921    |
 |   213    0.57143   0.28571   0.28571   |    0.38579   0.38579   1.20921    |
 |   214    0.57143   0.28571   0.42857   |    0.38579   0.57869   1.20921    |
 |   215    0.57143   0.28571   0.57143   |    0.38579   0.77158   1.20921    |
 |   216    0.57143   0.28571   0.71429   |    0.38579   0.96448   1.20921    |
 |   217    0.57143   0.28571   0.85714   |    0.38579   1.15738   1.20921    |
 |   218    0.57143   0.42857   0.00000   |    0.57869   0.00000   1.20921    |
 |   219    0.57143   0.42857   0.14286   |    0.57869   0.19290   1.20921    |
 |   220    0.57143   0.42857   0.28571   |    0.57869   0.38579   1.20921    |
 |   221    0.57143   0.42857   0.42857   |    0.57869   0.57869   1.20921    |
 |   222    0.57143   0.42857   0.57143   |    0.57869   0.77158   1.20921    |
 |   223    0.57143   0.42857   0.71429   |    0.57869   0.96448   1.20921    |
 |   224    0.57143   0.42857   0.85714   |    0.57869   1.15738   1.20921    |
 |   225    0.57143   0.57143   0.00000   |    0.77158   0.00000   1.20921    |
 |   226    0.57143   0.57143   0.14286   |    0.77158   0.19290   1.20921    |
 |   227    0.57143   0.57143   0.28571   |    0.77158   0.38579   1.20921    |
 |   228    0.57143   0.57143   0.42857   |    0.77158   0.57869   1.20921    |
 |   229    0.57143   0.57143   0.57143   |    0.77158   0.77158   1.20921    |
 |   230    0.57143   0.57143   0.71429   |    0.77158   0.96448   1.20921    |
 |   231    0.57143   0.57143   0.85714   |    0.77158   1.15738   1.20921    |
 |   232    0.57143   0.71429   0.00000   |    0.96448   0.00000   1.20921    |
 |   233    0.57143   0.71429   0.14286   |    0.96448   0.19290   1.20921    |
 |   234    0.57143   0.71429   0.28571   |    0.96448   0.38579   1.20921    |
 |   235    0.57143   0.71429   0.42857   |    0.96448   0.57869   1.20921    |
 |   236    0.57143   0.71429   0.57143   |    0.96448   0.77158   1.20921    |
 |   237    0.57143   0.71429   0.71429   |    0.96448   0.96448   1.20921    |
 |   238    0.57143   0.71429   0.85714   |    0.96448   1.15738   1.20921    |
 |   239    0.57143   0.85714   0.00000   |    1.15738   0.00000   1.20921    |
 |   240    0.57143   0.85714   0.14286   |    1.15738   0.19290   1.20921    |
 |   241    0.57143   0.85714   0.28571   |    1.15738   0.38579   1.20921    |
 |   242    0.57143   0.85714   0.42857   |    1.15738   0.57869   1.20921    |
 |   243    0.57143   0.85714   0.57143   |    1.15738   0.77158   1.20921    |
 |   244    0.57143   0.85714   0.71429   |    1.15738   0.96448   1.20921    |
 |   245    0.57143   0.85714   0.85714   |    1.15738   1.15738   1.20921    |
 |   246    0.71429   0.00000   0.00000   |    0.00000   0.00000   1.51151    |
 |   247    0.71429   0.00000   0.14286   |    0.00000   0.19290   1.51151    |
 |   248    0.71429   0.00000   0.28571   |    0.00000   0.38579   1.51151    |
 |   249    0.71429   0.00000   0.42857   |    0.00000   0.57869   1.51151    |
 |   250    0.71429   0.00000   0.57143   |    0.00000   0.77158   1.51151    |
 |   251    0.71429   0.00000   0.71429   |    0.00000   0.96448   1.51151    |
 |   252    0.71429   0.00000   0.85714   |    0.00000   1.15738   1.51151    |
 |   253    0.71429   0.14286   0.00000   |    0.19290   0.00000   1.51151    |
 |   254    0.71429   0.14286   0.14286   |    0.19290   0.19290   1.51151    |
 |   255    0.71429   0.14286   0.28571   |    0.19290   0.38579   1.51151    |
 |   256    0.71429   0.14286   0.42857   |    0.19290   0.57869   1.51151    |
 |   257    0.71429   0.14286   0.57143   |    0.19290   0.77158   1.51151    |
 |   258    0.71429   0.14286   0.71429   |    0.19290   0.96448   1.51151    |
 |   259    0.71429   0.14286   0.85714   |    0.19290   1.15738   1.51151    |
 |   260    0.71429   0.28571   0.00000   |    0.38579   0.00000   1.51151    |
 |   261    0.71429   0.28571   0.14286   |    0.38579   0.19290   1.51151    |
 |   262    0.71429   0.28571   0.28571   |    0.38579   0.38579   1.51151    |
 |   263    0.71429   0.28571   0.42857   |    0.38579   0.57869   1.51151    |
 |   264    0.71429   0.28571   0.57143   |    0.38579   0.77158   1.51151    |
 |   265    0.71429   0.28571   0.71429   |    0.38579   0.96448   1.51151    |
 |   266    0.71429   0.28571   0.85714   |    0.38579   1.15738   1.51151    |
 |   267    0.71429   0.42857   0.00000   |    0.57869   0.00000   1.51151    |
 |   268    0.71429   0.42857   0.14286   |    0.57869   0.19290   1.51151    |
 |   269    0.71429   0.42857   0.28571   |    0.57869   0.38579   1.51151    |
 |   270    0.71429   0.42857   0.42857   |    0.57869   0.57869   1.51151    |
 |   271    0.71429   0.42857   0.57143   |    0.57869   0.77158   1.51151    |
 |   272    0.71429   0.42857   0.71429   |    0.57869   0.96448   1.51151    |
 |   273    0.71429   0.42857   0.85714   |    0.57869   1.15738   1.51151    |
 |   274    0.71429   0.57143   0.00000   |    0.77158   0.00000   1.51151    |
 |   275    0.71429   0.57143   0.14286   |    0.77158   0.19290   1.51151    |
 |   276    0.71429   0.57143   0.28571   |    0.77158   0.38579   1.51151    |
 |   277    0.71429   0.57143   0.42857   |    0.77158   0.57869   1.51151    |
 |   278    0.71429   0.57143   0.57143   |    0.77158   0.77158   1.51151    |
 |   279    0.71429   0.57143   0.71429   |    0.77158   0.96448   1.51151    |
 |   280    0.71429   0.57143   0.85714   |    0.77158   1.15738   1.51151    |
 |   281    0.71429   0.71429   0.00000   |    0.96448   0.00000   1.51151    |
 |   282    0.71429   0.71429   0.14286   |    0.96448   0.19290   1.51151    |
 |   283    0.71429   0.71429   0.28571   |    0.96448   0.38579   1.51151    |
 |   284    0.71429   0.71429   0.42857   |    0.96448   0.57869   1.51151    |
 |   285    0.71429   0.71429   0.57143   |    0.96448   0.77158   1.51151    |
 |   286    0.71429   0.71429   0.71429   |    0.96448   0.96448   1.51151    |
 |   287    0.71429   0.71429   0.85714   |    0.96448   1.15738   1.51151    |
 |   288    0.71429   0.85714   0.00000   |    1.15738   0.00000   1.51151    |
 |   289    0.71429   0.85714   0.14286   |    1.15738   0.19290   1.51151    |
 |   290    0.71429   0.85714   0.28571   |    1.15738   0.38579   1.51151    |
 |   291    0.71429   0.85714   0.42857   |    1.15738   0.57869   1.51151    |
 |   292    0.71429   0.85714   0.57143   |    1.15738   0.77158   1.51151    |
 |   293    0.71429   0.85714   0.71429   |    1.15738   0.96448   1.51151    |
 |   294    0.71429   0.85714   0.85714   |    1.15738   1.15738   1.51151    |
 |   295    0.85714   0.00000   0.00000   |    0.00000   0.00000   1.81382    |
 |   296    0.85714   0.00000   0.14286   |    0.00000   0.19290   1.81382    |
 |   297    0.85714   0.00000   0.28571   |    0.00000   0.38579   1.81382    |
 |   298    0.85714   0.00000   0.42857   |    0.00000   0.57869   1.81382    |
 |   299    0.85714   0.00000   0.57143   |    0.00000   0.77158   1.81382    |
 |   300    0.85714   0.00000   0.71429   |    0.00000   0.96448   1.81382    |
 |   301    0.85714   0.00000   0.85714   |    0.00000   1.15738   1.81382    |
 |   302    0.85714   0.14286   0.00000   |    0.19290   0.00000   1.81382    |
 |   303    0.85714   0.14286   0.14286   |    0.19290   0.19290   1.81382    |
 |   304    0.85714   0.14286   0.28571   |    0.19290   0.38579   1.81382    |
 |   305    0.85714   0.14286   0.42857   |    0.19290   0.57869   1.81382    |
 |   306    0.85714   0.14286   0.57143   |    0.19290   0.77158   1.81382    |
 |   307    0.85714   0.14286   0.71429   |    0.19290   0.96448   1.81382    |
 |   308    0.85714   0.14286   0.85714   |    0.19290   1.15738   1.81382    |
 |   309    0.85714   0.28571   0.00000   |    0.38579   0.00000   1.81382    |
 |   310    0.85714   0.28571   0.14286   |    0.38579   0.19290   1.81382    |
 |   311    0.85714   0.28571   0.28571   |    0.38579   0.38579   1.81382    |
 |   312    0.85714   0.28571   0.42857   |    0.38579   0.57869   1.81382    |
 |   313    0.85714   0.28571   0.57143   |    0.38579   0.77158   1.81382    |
 |   314    0.85714   0.28571   0.71429   |    0.38579   0.96448   1.81382    |
 |   315    0.85714   0.28571   0.85714   |    0.38579   1.15738   1.81382    |
 |   316    0.85714   0.42857   0.00000   |    0.57869   0.00000   1.81382    |
 |   317    0.85714   0.42857   0.14286   |    0.57869   0.19290   1.81382    |
 |   318    0.85714   0.42857   0.28571   |    0.57869   0.38579   1.81382    |
 |   319    0.85714   0.42857   0.42857   |    0.57869   0.57869   1.81382    |
 |   320    0.85714   0.42857   0.57143   |    0.57869   0.77158   1.81382    |
 |   321    0.85714   0.42857   0.71429   |    0.57869   0.96448   1.81382    |
 |   322    0.85714   0.42857   0.85714   |    0.57869   1.15738   1.81382    |
 |   323    0.85714   0.57143   0.00000   |    0.77158   0.00000   1.81382    |
 |   324    0.85714   0.57143   0.14286   |    0.77158   0.19290   1.81382    |
 |   325    0.85714   0.57143   0.28571   |    0.77158   0.38579   1.81382    |
 |   326    0.85714   0.57143   0.42857   |    0.77158   0.57869   1.81382    |
 |   327    0.85714   0.57143   0.57143   |    0.77158   0.77158   1.81382    |
 |   328    0.85714   0.57143   0.71429   |    0.77158   0.96448   1.81382    |
 |   329    0.85714   0.57143   0.85714   |    0.77158   1.15738   1.81382    |
 |   330    0.85714   0.71429   0.00000   |    0.96448   0.00000   1.81382    |
 |   331    0.85714   0.71429   0.14286   |    0.96448   0.19290   1.81382    |
 |   332    0.85714   0.71429   0.28571   |    0.96448   0.38579   1.81382    |
 |   333    0.85714   0.71429   0.42857   |    0.96448   0.57869   1.81382    |
 |   334    0.85714   0.71429   0.57143   |    0.96448   0.77158   1.81382    |
 |   335    0.85714   0.71429   0.71429   |    0.96448   0.96448   1.81382    |
 |   336    0.85714   0.71429   0.85714   |    0.96448   1.15738   1.81382    |
 |   337    0.85714   0.85714   0.00000   |    1.15738   0.00000   1.81382    |
 |   338    0.85714   0.85714   0.14286   |    1.15738   0.19290   1.81382    |
 |   339    0.85714   0.85714   0.28571   |    1.15738   0.38579   1.81382    |
 |   340    0.85714   0.85714   0.42857   |    1.15738   0.57869   1.81382    |
 |   341    0.85714   0.85714   0.57143   |    1.15738   0.77158   1.81382    |
 |   342    0.85714   0.85714   0.71429   |    1.15738   0.96448   1.81382    |
 |   343    0.85714   0.85714   0.85714   |    1.15738   1.15738   1.81382    |
 *----------------------------------------------------------------------------*
  
  
 *---------------------------------- MAIN ------------------------------------*
 |  Number of Wannier Functions               :                22             |
 |  Number of Objective Wannier Functions     :                22             |
 |  Number of input Bloch states              :                22             |
 |  Output verbosity (1=low, 5=high)          :                 2             |
 |  Timing Level (1=low, 5=high)              :                 1             |
 |  Optimisation (0=memory, 3=speed)          :                 3             |
 |  Length Unit                               :               Ang             |
 |  Post-processing setup (write *.nnkp)      :                 F             |
 |  Using Gamma-only branch of algorithms     :                 F             |
 *----------------------------------------------------------------------------*
 *------------------------------- WANNIERISE ---------------------------------*
 |  Total number of iterations                :              1000             |
 |  Number of CG steps before reset           :                 5             |
 |  Trial step length for line search         :             2.000             |
 |  Convergence tolerence                     :         0.100E-11             |
 |  Convergence window                        :                 5             |
 |  Iterations between writing output         :                 1             |
 |  Iterations between backing up to disk     :               100             |
 |  Write r^2_nm to file                      :                 F             |
 |  Write xyz WF centres to file              :                 F             |
 |  Write on-site energies <0n|H|0n> to file  :                 F             |
 |  Use guiding centre to control phases      :                 F             |
 |  Use phases for initial projections        :                 F             |
 *----------------------------------------------------------------------------*
 *-------------------------------- PLOTTING ----------------------------------*
 |  Plotting interpolated bandstructure       :                 T             |
 |   Number of K-path sections                :                 7             |
 |   Divisions along first K-path section     :               100             |
 |   Output format                            :           gnuplot             |
 |   Output mode                              :               s-k             |
 *----------------------------------------------------------------------------*
 |   K-space path sections:                                                   |
 |    From: G       0.000  0.000  0.000     To: X       0.500  0.000  0.000   |
 |    From: X       0.500  0.000  0.000     To: M       0.500 -0.500  0.000   |
 |    From: M       0.500 -0.500  0.000     To: G       0.000  0.000  0.000   |
 |    From: G       0.000  0.000  0.000     To: Z       0.000  0.000  0.500   |
 |    From: Z       0.000  0.000  0.500     To: R       0.500  0.000  0.500   |
 |    From: R       0.500  0.000  0.500     To: A       0.500 -0.500  0.500   |
 |    From: A       0.500 -0.500  0.500     To: Z       0.000  0.000  0.500   |
 *----------------------------------------------------------------------------*
 |  Plotting Hamiltonian in WF basis          :                 T             |
 *----------------------------------------------------------------------------*
 Time to read parameters        0.041 (sec)

 *---------------------------------- K-MESH ----------------------------------*
 +----------------------------------------------------------------------------+
 |                    Distance to Nearest-Neighbour Shells                    |
 |                    ------------------------------------                    |
 |          Shell             Distance (Ang^-1)          Multiplicity         |
 |          -----             -----------------          ------------         |
 |             1                   0.192896                      4            |
 |             2                   0.272796                      4            |
 |             3                   0.302303                      2            |
 |             4                   0.358603                      8            |
 |             5                   0.385792                      4            |
 |             6                   0.407191                      8            |
 |             7                   0.431329                      8            |
 |             8                   0.490125                      8            |
 |             9                   0.526718                     16            |
 |            10                   0.545592                      4            |
 |            11                   0.578688                      4            |
 |            12                   0.604605                      2            |
 |            13                   0.609991                      8            |
 |            14                   0.623745                      8            |
 |            15                   0.634631                      8            |
 |            16                   0.652891                      8            |
 |            17                   0.663299                      8            |
 |            18                   0.680791                     16            |
 |            19                   0.695497                      8            |
 |            20                   0.717205                      8            |
 |            21                   0.742692                     16            |
 |            22                   0.758355                     16            |
 |            23                   0.771584                      4            |
 |            24                   0.795331                      8            |
 |            25                   0.814382                      8            |
 |            26                   0.818389                      4            |
 |            27                   0.828691                      8            |
 |            28                   0.836916                      8            |
 |            29                   0.850846                     16            |
 |            30                   0.858858                     16            |
 |            31                   0.862657                      8            |
 |            32                   0.872437                      8            |
 |            33                   0.906908                      2            |
 |            34                   0.914092                     16            |
 |            35                   0.921555                     16            |
 |            36                   0.927195                      8            |
 +----------------------------------------------------------------------------+
 | The b-vectors are chosen automatically                                     |
 | Shell:  1 w_b   13.4376475      (Ang^2)                                    |
 | SVD found small singular value, Rejecting this shell and trying the next   |
 | Shell:  1 w_b   13.4376475      (Ang^2)                                    |
 | Shell:  2 w_b    5.4712448      (Ang^2)                                    |
 | The following shells are used:   1,  3                                     |
 +----------------------------------------------------------------------------+
 |                        Shell   # Nearest-Neighbours                        |
 |                        -----   --------------------                        |
 |                          1               4                                 |
 |                          3               2                                 |
 +----------------------------------------------------------------------------+
 | Completeness relation is fully satisfied [Eq. (B1), PRB 56, 12847 (1997)]  |
 +----------------------------------------------------------------------------+
 |                  b_k Vectors (Ang^-1) and Weights (Ang^2)                  |
 |                  ----------------------------------------                  |
 |            No.         b_k(x)      b_k(y)      b_k(z)        w_b           |
 |            ---        --------------------------------     --------        |
 |             1         0.000000    0.192896    0.000000    13.437647        |
 |             2         0.192896    0.000000    0.000000    13.437647        |
 |             3         0.000000   -0.192896    0.000000    13.437647        |
 |             4        -0.192896    0.000000    0.000000    13.437647        |
 |             5         0.000000    0.000000    0.302303     5.471245        |
 |             6         0.000000    0.000000   -0.302303     5.471245        |
 +----------------------------------------------------------------------------+
 |                           b_k Directions (Ang^-1)                          |
 |                           -----------------------                          |
 |            No.           x           y           z                         |
 |            ---        --------------------------------                     |
 |             1         0.000000    0.192896    0.000000                     |
 |             2         0.192896    0.000000    0.000000                     |
 |             3         0.000000    0.000000    0.302303                     |
 +----------------------------------------------------------------------------+
  
 Time to get kmesh              0.172 (sec)
 *============================================================================*
 |                              MEMORY ESTIMATE                               |
 |         Maximum RAM allocated during each phase of the calculation         |
 *============================================================================*
 |                            Wannierise:           42.46 Mb                  |
 |                                                                            |
 |   N.B. by setting optimisation=0 memory usage will be reduced to:          |
 |                            Wannierise:           27.26 Mb                  |
 |   However, this will result in more i/o and slow down the calculation      |
 |                          plot_wannier:           42.46 Mb                  |
 *----------------------------------------------------------------------------*
  
 Starting a new Wannier90 calculation ...


 Reading overlaps from tio.mmn    :  Created on 29Nov2022 at  0:56:30

 Reading projections from tio.amn :  Created on 29Nov2022 at  0:49:26

 Time to read overlaps          1.045 (sec)

 Writing checkpoint file tio.chk... done


 *------------------------------- WANNIERISE ---------------------------------*
 +--------------------------------------------------------------------+<-- CONV
 | Iter  Delta Spread     RMS Gradient      Spread (Ang^2)      Time  |<-- CONV
 +--------------------------------------------------------------------+<-- CONV

 ------------------------------------------------------------------------------
 Initial State
  WF centre and spread    1  (  2.326636,  2.326636,  1.484602 )     0.75198388
  WF centre and spread    2  (  2.326636,  2.326636,  1.484602 )     0.74544193
  WF centre and spread    3  (  2.326636,  2.326636,  1.484602 )     0.74544193
  WF centre and spread    4  (  2.326636,  2.326636,  1.484602 )     0.72270862
  WF centre and spread    5  (  2.326636,  2.326636,  1.484602 )     0.72071294
  WF centre and spread    6  (  0.000000,  0.000000, -0.000000 )     0.75198440
  WF centre and spread    7  (  0.000000,  0.000000, -0.000000 )     0.74544245
  WF centre and spread    8  ( -0.000000, -0.000000, -0.000000 )     0.74544245
  WF centre and spread    9  ( -0.000000,  0.000000,  0.000000 )     0.72270914
  WF centre and spread   10  (  0.000000,  0.000000,  0.000000 )     0.72071346
  WF centre and spread   11  (  0.907750,  3.745522,  1.484602 )     0.74089550
  WF centre and spread   12  (  0.917954,  3.746701,  1.484602 )     0.72755462
  WF centre and spread   13  (  0.906571,  3.735318,  1.484602 )     0.72755463
  WF centre and spread   14  (  3.745522,  0.907750,  1.484602 )     0.74089550
  WF centre and spread   15  (  3.735318,  0.906571,  1.484602 )     0.72755463
  WF centre and spread   16  (  3.746701,  0.917954,  1.484602 )     0.72755462
  WF centre and spread   17  (  1.418886,  1.418886, -0.000000 )     0.74089602
  WF centre and spread   18  (  1.408682,  1.420065,  0.000000 )     0.72755515
  WF centre and spread   19  (  1.420065,  1.408682,  0.000000 )     0.72755515
  WF centre and spread   20  (  3.234386,  3.234386, -0.000000 )     0.74089535
  WF centre and spread   21  (  3.244590,  3.233207, -0.000000 )     0.72755447
  WF centre and spread   22  (  3.233207,  3.244590,  0.000000 )     0.72755447
  Sum of centres and spreads ( 39.552814, 39.552814, 16.330617 )    16.15660129

      0     0.162E+02     0.0000000000       16.1566109801       0.00  <-- CONV
        O_D=      0.0008543 O_OD=      0.3436425 O_TOT=     16.1566110 <-- SPRD
 ------------------------------------------------------------------------------
 Cycle:      1
  WF centre and spread    1  (  2.326636,  2.326636,  1.484602 )     0.75262263
  WF centre and spread    2  (  2.326636,  2.326636,  1.484602 )     0.74443960
  WF centre and spread    3  (  2.326636,  2.326636,  1.484602 )     0.74443960
  WF centre and spread    4  (  2.326636,  2.326636,  1.484602 )     0.72227096
  WF centre and spread    5  (  2.326636,  2.326636,  1.484602 )     0.71968397
  WF centre and spread    6  ( -0.000000, -0.000000, -0.000000 )     0.75262315
  WF centre and spread    7  ( -0.000000, -0.000000, -0.000000 )     0.74444012
  WF centre and spread    8  ( -0.000000, -0.000000, -0.000000 )     0.74444012
  WF centre and spread    9  ( -0.000000, -0.000000, -0.000000 )     0.72227148
  WF centre and spread   10  ( -0.000000, -0.000000, -0.000000 )     0.71968449
  WF centre and spread   11  (  0.907750,  3.745522,  1.484602 )     0.73928589
  WF centre and spread   12  (  0.917988,  3.746687,  1.484602 )     0.72632623
  WF centre and spread   13  (  0.906585,  3.735284,  1.484602 )     0.72632623
  WF centre and spread   14  (  3.745522,  0.907750,  1.484602 )     0.73928589
  WF centre and spread   15  (  3.735284,  0.906585,  1.484602 )     0.72632623
  WF centre and spread   16  (  3.746687,  0.917988,  1.484602 )     0.72632623
  WF centre and spread   17  (  1.418886,  1.418886, -0.000000 )     0.73928641
  WF centre and spread   18  (  1.408648,  1.420051, -0.000000 )     0.72632675
  WF centre and spread   19  (  1.420051,  1.408648, -0.000000 )     0.72632675
  WF centre and spread   20  (  3.234386,  3.234386, -0.000000 )     0.73928573
  WF centre and spread   21  (  3.244624,  3.233221, -0.000000 )     0.72632607
  WF centre and spread   22  (  3.233221,  3.244624, -0.000000 )     0.72632607
  Sum of centres and spreads ( 39.552814, 39.552814, 16.330617 )    16.13467059

      1    -0.219E-01     0.0932232183       16.1346802857       0.16  <-- CONV
        O_D=      0.0007797 O_OD=      0.3217864 O_TOT=     16.1346803 <-- SPRD
 Delta: O_D= -0.7459184E-04 O_OD= -0.2185610E-01 O_TOT= -0.2193069E-01 <-- DLTA
 ------------------------------------------------------------------------------
 Cycle:      2
  WF centre and spread    1  (  2.326636,  2.326636,  1.484602 )     0.75161381
  WF centre and spread    2  (  2.326636,  2.326636,  1.484602 )     0.74448340
  WF centre and spread    3  (  2.326636,  2.326636,  1.484602 )     0.74448340
  WF centre and spread    4  (  2.326636,  2.326636,  1.484602 )     0.72236861
  WF centre and spread    5  (  2.326636,  2.326636,  1.484602 )     0.71958442
  WF centre and spread    6  ( -0.000000, -0.000000, -0.000000 )     0.75161434
  WF centre and spread    7  ( -0.000000, -0.000000, -0.000000 )     0.74448392
  WF centre and spread    8  ( -0.000000, -0.000000, -0.000000 )     0.74448392
  WF centre and spread    9  ( -0.000000, -0.000000, -0.000000 )     0.72236914
  WF centre and spread   10  ( -0.000000, -0.000000, -0.000000 )     0.71958494
  WF centre and spread   11  (  0.907748,  3.745524,  1.484602 )     0.73830294
  WF centre and spread   12  (  0.918006,  3.746679,  1.484602 )     0.72554006
  WF centre and spread   13  (  0.906593,  3.735266,  1.484602 )     0.72554006
  WF centre and spread   14  (  3.745524,  0.907748,  1.484602 )     0.73830294
  WF centre and spread   15  (  3.735266,  0.906593,  1.484602 )     0.72554006
  WF centre and spread   16  (  3.746679,  0.918006,  1.484602 )     0.72554006
  WF centre and spread   17  (  1.418888,  1.418888, -0.000000 )     0.73830346
  WF centre and spread   18  (  1.408630,  1.420043, -0.000000 )     0.72554058
  WF centre and spread   19  (  1.420043,  1.408630, -0.000000 )     0.72554058
  WF centre and spread   20  (  3.234384,  3.234384, -0.000000 )     0.73830278
  WF centre and spread   21  (  3.244643,  3.233229, -0.000000 )     0.72553990
  WF centre and spread   22  (  3.233229,  3.244643, -0.000000 )     0.72553990
  Sum of centres and spreads ( 39.552814, 39.552814, 16.330617 )    16.12260323

      2    -0.121E-01     0.1133383654       16.1226129212       0.31  <-- CONV
        O_D=      0.0007830 O_OD=      0.3097157 O_TOT=     16.1226129 <-- SPRD
 Delta: O_D=  0.3308883E-05 O_OD= -0.1207067E-01 O_TOT= -0.1206736E-01 <-- DLTA
 ------------------------------------------------------------------------------
 Cycle:      3
  WF centre and spread    1  (  2.326636,  2.326636,  1.484602 )     0.75133881
  WF centre and spread    2  (  2.326636,  2.326636,  1.484602 )     0.74490288
  WF centre and spread    3  (  2.326636,  2.326636,  1.484602 )     0.74490288
  WF centre and spread    4  (  2.326636,  2.326636,  1.484602 )     0.72265466
  WF centre and spread    5  (  2.326636,  2.326636,  1.484602 )     0.72013194
  WF centre and spread    6  ( -0.000000, -0.000000, -0.000000 )     0.75133933
  WF centre and spread    7  ( -0.000000, -0.000000, -0.000000 )     0.74490340
  WF centre and spread    8  ( -0.000000, -0.000000, -0.000000 )     0.74490340
  WF centre and spread    9  ( -0.000000, -0.000000, -0.000000 )     0.72265518
  WF centre and spread   10  ( -0.000000, -0.000000, -0.000000 )     0.72013246
  WF centre and spread   11  (  0.907758,  3.745514,  1.484602 )     0.73733548
  WF centre and spread   12  (  0.918024,  3.746682,  1.484602 )     0.72480085
  WF centre and spread   13  (  0.906591,  3.735248,  1.484602 )     0.72480085
  WF centre and spread   14  (  3.745514,  0.907758,  1.484602 )     0.73733548
  WF centre and spread   15  (  3.735248,  0.906591,  1.484602 )     0.72480085
  WF centre and spread   16  (  3.746682,  0.918024,  1.484602 )     0.72480085
  WF centre and spread   17  (  1.418878,  1.418878, -0.000000 )     0.73733600
  WF centre and spread   18  (  1.408612,  1.420045, -0.000000 )     0.72480137
  WF centre and spread   19  (  1.420045,  1.408612, -0.000000 )     0.72480137
  WF centre and spread   20  (  3.234395,  3.234395, -0.000000 )     0.73733533
  WF centre and spread   21  (  3.244660,  3.233227, -0.000000 )     0.72480069
  WF centre and spread   22  (  3.233227,  3.244660, -0.000000 )     0.72480069
  Sum of centres and spreads ( 39.552814, 39.552814, 16.330617 )    16.11561476

      3    -0.699E-02     0.0775040777       16.1156244489       0.47  <-- CONV
        O_D=      0.0007321 O_OD=      0.3027781 O_TOT=     16.1156244 <-- SPRD
 Delta: O_D= -0.5088026E-04 O_OD= -0.6937592E-02 O_TOT= -0.6988472E-02 <-- DLTA
 ------------------------------------------------------------------------------
 Cycle:      4
  WF centre and spread    1  (  2.326636,  2.326636,  1.484602 )     0.75189257
  WF centre and spread    2  (  2.326636,  2.326636,  1.484602 )     0.74570861
  WF centre and spread    3  (  2.326636,  2.326636,  1.484602 )     0.74570861
  WF centre and spread    4  (  2.326636,  2.326636,  1.484602 )     0.72312749
  WF centre and spread    5  (  2.326636,  2.326636,  1.484602 )     0.72088150
  WF centre and spread    6  ( -0.000000, -0.000000, -0.000000 )     0.75189309
  WF centre and spread    7  ( -0.000000, -0.000000, -0.000000 )     0.74570913
  WF centre and spread    8  ( -0.000000, -0.000000, -0.000000 )     0.74570913
  WF centre and spread    9  ( -0.000000, -0.000000, -0.000000 )     0.72312801
  WF centre and spread   10  ( -0.000000, -0.000000, -0.000000 )     0.72088202
  WF centre and spread   11  (  0.907781,  3.745491,  1.484602 )     0.73613305
  WF centre and spread   12  (  0.918048,  3.746691,  1.484602 )     0.72376858
  WF centre and spread   13  (  0.906581,  3.735224,  1.484602 )     0.72376858
  WF centre and spread   14  (  3.745491,  0.907781,  1.484602 )     0.73613305
  WF centre and spread   15  (  3.735224,  0.906581,  1.484602 )     0.72376858
  WF centre and spread   16  (  3.746691,  0.918048,  1.484602 )     0.72376858
  WF centre and spread   17  (  1.418855,  1.418855, -0.000000 )     0.73613357
  WF centre and spread   18  (  1.408588,  1.420055, -0.000000 )     0.72376910
  WF centre and spread   19  (  1.420055,  1.408588, -0.000000 )     0.72376910
  WF centre and spread   20  (  3.234417,  3.234417, -0.000000 )     0.73613290
  WF centre and spread   21  (  3.244684,  3.233217, -0.000000 )     0.72376842
  WF centre and spread   22  (  3.233217,  3.244684, -0.000000 )     0.72376842
  Sum of centres and spreads ( 39.552814, 39.552814, 16.330617 )    16.10932212

      4    -0.629E-02     0.0703622351       16.1093318093       0.63  <-- CONV
        O_D=      0.0006929 O_OD=      0.2965247 O_TOT=     16.1093318 <-- SPRD
 Delta: O_D= -0.3921406E-04 O_OD= -0.6253425E-02 O_TOT= -0.6292640E-02 <-- DLTA
 ------------------------------------------------------------------------------
 Cycle:      5
  WF centre and spread    1  (  2.326636,  2.326636,  1.484602 )     0.75272654
  WF centre and spread    2  (  2.326636,  2.326636,  1.484602 )     0.74660763
  WF centre and spread    3  (  2.326636,  2.326636,  1.484602 )     0.74660763
  WF centre and spread    4  (  2.326636,  2.326636,  1.484602 )     0.72361429
  WF centre and spread    5  (  2.326636,  2.326636,  1.484602 )     0.72161187
  WF centre and spread    6  ( -0.000000, -0.000000, -0.000000 )     0.75272706
  WF centre and spread    7  ( -0.000000, -0.000000, -0.000000 )     0.74660815
  WF centre and spread    8  ( -0.000000, -0.000000, -0.000000 )     0.74660815
  WF centre and spread    9  ( -0.000000, -0.000000, -0.000000 )     0.72361481
  WF centre and spread   10  ( -0.000000, -0.000000, -0.000000 )     0.72161239
  WF centre and spread   11  (  0.907807,  3.745466,  1.484602 )     0.73503893
  WF centre and spread   12  (  0.918067,  3.746702,  1.484602 )     0.72276872
  WF centre and spread   13  (  0.906570,  3.735205,  1.484602 )     0.72276873
  WF centre and spread   14  (  3.745466,  0.907807,  1.484602 )     0.73503893
  WF centre and spread   15  (  3.735205,  0.906570,  1.484602 )     0.72276873
  WF centre and spread   16  (  3.746702,  0.918067,  1.484602 )     0.72276872
  WF centre and spread   17  (  1.418829,  1.418829, -0.000000 )     0.73503945
  WF centre and spread   18  (  1.408569,  1.420066, -0.000000 )     0.72276925
  WF centre and spread   19  (  1.420066,  1.408569, -0.000000 )     0.72276925
  WF centre and spread   20  (  3.234443,  3.234443, -0.000000 )     0.73503878
  WF centre and spread   21  (  3.244703,  3.233206, -0.000000 )     0.72276857
  WF centre and spread   22  (  3.233206,  3.244703, -0.000000 )     0.72276857
  Sum of centres and spreads ( 39.552814, 39.552814, 16.330617 )    16.10464514

      5    -0.468E-02     0.0641547458       16.1046548295       0.80  <-- CONV
        O_D=      0.0006692 O_OD=      0.2918714 O_TOT=     16.1046548 <-- SPRD
 Delta: O_D= -0.2368371E-04 O_OD= -0.4653296E-02 O_TOT= -0.4676980E-02 <-- DLTA
 ------------------------------------------------------------------------------
 Cycle:      6
  WF centre and spread    1  (  2.326636,  2.326636,  1.484602 )     0.75352784
  WF centre and spread    2  (  2.326636,  2.326636,  1.484602 )     0.74749693
  WF centre and spread    3  (  2.326636,  2.326636,  1.484602 )     0.74749693
  WF centre and spread    4  (  2.326636,  2.326636,  1.484602 )     0.72406159
  WF centre and spread    5  (  2.326636,  2.326636,  1.484602 )     0.72245588
  WF centre and spread    6  ( -0.000000, -0.000000, -0.000000 )     0.75352836
  WF centre and spread    7  ( -0.000000, -0.000000, -0.000000 )     0.74749745
  WF centre and spread    8  ( -0.000000, -0.000000, -0.000000 )     0.74749745
  WF centre and spread    9  ( -0.000000, -0.000000, -0.000000 )     0.72406211
  WF centre and spread   10  ( -0.000000, -0.000000, -0.000000 )     0.72245640
  WF centre and spread   11  (  0.907832,  3.745440,  1.484602 )     0.73401470
  WF centre and spread   12  (  0.918080,  3.746712,  1.484602 )     0.72185805
  WF centre and spread   13  (  0.906560,  3.735193,  1.484602 )     0.72185805
  WF centre and spread   14  (  3.745440,  0.907832,  1.484602 )     0.73401470
  WF centre and spread   15  (  3.735193,  0.906560,  1.484602 )     0.72185805
  WF centre and spread   16  (  3.746712,  0.918080,  1.484602 )     0.72185805
  WF centre and spread   17  (  1.418804,  1.418804, -0.000000 )     0.73401522
  WF centre and spread   18  (  1.408557,  1.420076, -0.000000 )     0.72185857
  WF centre and spread   19  (  1.420076,  1.408557, -0.000000 )     0.72185857
  WF centre and spread   20  (  3.234468,  3.234468, -0.000000 )     0.73401455
  WF centre and spread   21  (  3.244716,  3.233196, -0.000000 )     0.72185789
  WF centre and spread   22  (  3.233196,  3.244716, -0.000000 )     0.72185789
  Sum of centres and spreads ( 39.552814, 39.552814, 16.330617 )    16.10100524

      6    -0.364E-02     0.0548413806       16.1010149305       0.98  <-- CONV
        O_D=      0.0006674 O_OD=      0.2882333 O_TOT=     16.1010149 <-- SPRD
 Delta: O_D= -0.1841099E-05 O_OD= -0.3638058E-02 O_TOT= -0.3639899E-02 <-- DLTA
 ------------------------------------------------------------------------------
 Cycle:      7
  WF centre and spread    1  (  2.326636,  2.326636,  1.484602 )     0.75336687
  WF centre and spread    2  (  2.326636,  2.326636,  1.484602 )     0.74751577
  WF centre and spread    3  (  2.326636,  2.326636,  1.484602 )     0.74751577
  WF centre and spread    4  (  2.326636,  2.326636,  1.484602 )     0.72405446
  WF centre and spread    5  (  2.326636,  2.326636,  1.484602 )     0.72247940
  WF centre and spread    6  ( -0.000000, -0.000000, -0.000000 )     0.75336740
  WF centre and spread    7  ( -0.000000, -0.000000, -0.000000 )     0.74751629
  WF centre and spread    8  ( -0.000000, -0.000000, -0.000000 )     0.74751629
  WF centre and spread    9  ( -0.000000, -0.000000, -0.000000 )     0.72405498
  WF centre and spread   10  ( -0.000000, -0.000000, -0.000000 )     0.72247993
  WF centre and spread   11  (  0.907835,  3.745437,  1.484602 )     0.73390995
  WF centre and spread   12  (  0.918079,  3.746713,  1.484602 )     0.72173061
  WF centre and spread   13  (  0.906559,  3.735193,  1.484602 )     0.72173061
  WF centre and spread   14  (  3.745437,  0.907835,  1.484602 )     0.73390995
  WF centre and spread   15  (  3.735193,  0.906559,  1.484602 )     0.72173061
  WF centre and spread   16  (  3.746713,  0.918079,  1.484602 )     0.72173061
  WF centre and spread   17  (  1.418801,  1.418801, -0.000000 )     0.73391048
  WF centre and spread   18  (  1.408557,  1.420077, -0.000000 )     0.72173113
  WF centre and spread   19  (  1.420077,  1.408557, -0.000000 )     0.72173113
  WF centre and spread   20  (  3.234471,  3.234471, -0.000000 )     0.73390980
  WF centre and spread   21  (  3.244715,  3.233195, -0.000000 )     0.72173045
  WF centre and spread   22  (  3.233195,  3.244715, -0.000000 )     0.72173045
  Sum of centres and spreads ( 39.552814, 39.552814, 16.330617 )    16.09935297

      7    -0.165E-02     0.0497970207       16.0993626586       1.15  <-- CONV
        O_D=      0.0006402 O_OD=      0.2866083 O_TOT=     16.0993627 <-- SPRD
 Delta: O_D= -0.2725227E-04 O_OD= -0.1625020E-02 O_TOT= -0.1652272E-02 <-- DLTA
 ------------------------------------------------------------------------------
 Cycle:      8
  WF centre and spread    1  (  2.326636,  2.326636,  1.484602 )     0.75339673
  WF centre and spread    2  (  2.326636,  2.326636,  1.484602 )     0.74764640
  WF centre and spread    3  (  2.326636,  2.326636,  1.484602 )     0.74764640
  WF centre and spread    4  (  2.326636,  2.326636,  1.484602 )     0.72407747
  WF centre and spread    5  (  2.326636,  2.326636,  1.484602 )     0.72268895
  WF centre and spread    6  ( -0.000000, -0.000000, -0.000000 )     0.75339725
  WF centre and spread    7  ( -0.000000, -0.000000, -0.000000 )     0.74764692
  WF centre and spread    8  ( -0.000000, -0.000000, -0.000000 )     0.74764692
  WF centre and spread    9  ( -0.000000, -0.000000, -0.000000 )     0.72407799
  WF centre and spread   10  ( -0.000000, -0.000000, -0.000000 )     0.72268947
  WF centre and spread   11  (  0.907842,  3.745430,  1.484602 )     0.73369082
  WF centre and spread   12  (  0.918077,  3.746715,  1.484602 )     0.72152850
  WF centre and spread   13  (  0.906557,  3.735196,  1.484602 )     0.72152851
  WF centre and spread   14  (  3.745430,  0.907842,  1.484602 )     0.73369082
  WF centre and spread   15  (  3.735196,  0.906557,  1.484602 )     0.72152851
  WF centre and spread   16  (  3.746715,  0.918077,  1.484602 )     0.72152850
  WF centre and spread   17  (  1.418794,  1.418794, -0.000000 )     0.73369134
  WF centre and spread   18  (  1.408559,  1.420079, -0.000000 )     0.72152902
  WF centre and spread   19  (  1.420079,  1.408559, -0.000000 )     0.72152902
  WF centre and spread   20  (  3.234478,  3.234478, -0.000000 )     0.73369066
  WF centre and spread   21  (  3.244713,  3.233193, -0.000000 )     0.72152835
  WF centre and spread   22  (  3.233193,  3.244713, -0.000000 )     0.72152835
  Sum of centres and spreads ( 39.552814, 39.552814, 16.330617 )    16.09790688

      8    -0.145E-02     0.0343392772       16.0979165729       1.35  <-- CONV
        O_D=      0.0006335 O_OD=      0.2851689 O_TOT=     16.0979166 <-- SPRD
 Delta: O_D= -0.6693574E-05 O_OD= -0.1439392E-02 O_TOT= -0.1446086E-02 <-- DLTA
 ------------------------------------------------------------------------------
 Cycle:      9
  WF centre and spread    1  (  2.326636,  2.326636,  1.484602 )     0.75358709
  WF centre and spread    2  (  2.326636,  2.326636,  1.484602 )     0.74788425
  WF centre and spread    3  (  2.326636,  2.326636,  1.484602 )     0.74788425
  WF centre and spread    4  (  2.326636,  2.326636,  1.484602 )     0.72414795
  WF centre and spread    5  (  2.326636,  2.326636,  1.484602 )     0.72294066
  WF centre and spread    6  ( -0.000000, -0.000000, -0.000000 )     0.75358761
  WF centre and spread    7  ( -0.000000, -0.000000, -0.000000 )     0.74788477
  WF centre and spread    8  ( -0.000000, -0.000000, -0.000000 )     0.74788477
  WF centre and spread    9  ( -0.000000, -0.000000, -0.000000 )     0.72414847
  WF centre and spread   10  ( -0.000000, -0.000000, -0.000000 )     0.72294118
  WF centre and spread   11  (  0.907850,  3.745423,  1.484602 )     0.73343961
  WF centre and spread   12  (  0.918076,  3.746718,  1.484602 )     0.72126956
  WF centre and spread   13  (  0.906554,  3.735196,  1.484602 )     0.72126957
  WF centre and spread   14  (  3.745423,  0.907850,  1.484602 )     0.73343961
  WF centre and spread   15  (  3.735196,  0.906554,  1.484602 )     0.72126957
  WF centre and spread   16  (  3.746718,  0.918076,  1.484602 )     0.72126956
  WF centre and spread   17  (  1.418787,  1.418787, -0.000000 )     0.73344013
  WF centre and spread   18  (  1.408560,  1.420082, -0.000000 )     0.72127009
  WF centre and spread   19  (  1.420082,  1.408560, -0.000000 )     0.72127009
  WF centre and spread   20  (  3.234486,  3.234486, -0.000000 )     0.73343946
  WF centre and spread   21  (  3.244712,  3.233190, -0.000000 )     0.72126941
  WF centre and spread   22  (  3.233190,  3.244712, -0.000000 )     0.72126941
  Sum of centres and spreads ( 39.552814, 39.552814, 16.330617 )    16.09680707

      9    -0.110E-02     0.0310550060       16.0968167653       1.52  <-- CONV
        O_D=      0.0006369 O_OD=      0.2840657 O_TOT=     16.0968168 <-- SPRD
 Delta: O_D=  0.3433300E-05 O_OD= -0.1103241E-02 O_TOT= -0.1099808E-02 <-- DLTA
 ------------------------------------------------------------------------------
 Cycle:     10
  WF centre and spread    1  (  2.326636,  2.326636,  1.484602 )     0.75393516
  WF centre and spread    2  (  2.326636,  2.326636,  1.484602 )     0.74816151
  WF centre and spread    3  (  2.326636,  2.326636,  1.484602 )     0.74816151
  WF centre and spread    4  (  2.326636,  2.326636,  1.484602 )     0.72424767
  WF centre and spread    5  (  2.326636,  2.326636,  1.484602 )     0.72320464
  WF centre and spread    6  ( -0.000000, -0.000000, -0.000000 )     0.75393568
  WF centre and spread    7  ( -0.000000, -0.000000, -0.000000 )     0.74816203
  WF centre and spread    8  ( -0.000000, -0.000000, -0.000000 )     0.74816203
  WF centre and spread    9  ( -0.000000, -0.000000, -0.000000 )     0.72424819
  WF centre and spread   10  ( -0.000000, -0.000000, -0.000000 )     0.72320516
  WF centre and spread   11  (  0.907855,  3.745417,  1.484602 )     0.73318383
  WF centre and spread   12  (  0.918078,  3.746722,  1.484602 )     0.72098614
  WF centre and spread   13  (  0.906550,  3.735194,  1.484602 )     0.72098614
  WF centre and spread   14  (  3.745417,  0.907855,  1.484602 )     0.73318383
  WF centre and spread   15  (  3.735194,  0.906550,  1.484602 )     0.72098614
  WF centre and spread   16  (  3.746722,  0.918078,  1.484602 )     0.72098614
  WF centre and spread   17  (  1.418781,  1.418781, -0.000000 )     0.73318435
  WF centre and spread   18  (  1.408558,  1.420086, -0.000000 )     0.72098666
  WF centre and spread   19  (  1.420086,  1.408558, -0.000000 )     0.72098666
  WF centre and spread   20  (  3.234491,  3.234491, -0.000000 )     0.73318368
  WF centre and spread   21  (  3.244714,  3.233186, -0.000000 )     0.72098598
  WF centre and spread   22  (  3.233186,  3.244714, -0.000000 )     0.72098598
  Sum of centres and spreads ( 39.552814, 39.552814, 16.330617 )    16.09604913

     10    -0.758E-03     0.0258764840       16.0960588187       1.71  <-- CONV
        O_D=      0.0006338 O_OD=      0.2833108 O_TOT=     16.0960588 <-- SPRD
 Delta: O_D= -0.3106940E-05 O_OD= -0.7548397E-03 O_TOT= -0.7579466E-03 <-- DLTA
 ------------------------------------------------------------------------------
 Cycle:     11
  WF centre and spread    1  (  2.326636,  2.326636,  1.484602 )     0.75427860
  WF centre and spread    2  (  2.326636,  2.326636,  1.484602 )     0.74848722
  WF centre and spread    3  (  2.326636,  2.326636,  1.484602 )     0.74848722
  WF centre and spread    4  (  2.326636,  2.326636,  1.484602 )     0.72437837
  WF centre and spread    5  (  2.326636,  2.326636,  1.484602 )     0.72359179
  WF centre and spread    6  ( -0.000000, -0.000000, -0.000000 )     0.75427912
  WF centre and spread    7  ( -0.000000, -0.000000, -0.000000 )     0.74848774
  WF centre and spread    8  ( -0.000000, -0.000000, -0.000000 )     0.74848774
  WF centre and spread    9  ( -0.000000, -0.000000, -0.000000 )     0.72437889
  WF centre and spread   10  ( -0.000000, -0.000000, -0.000000 )     0.72359232
  WF centre and spread   11  (  0.907860,  3.745413,  1.484602 )     0.73289101
  WF centre and spread   12  (  0.918082,  3.746727,  1.484602 )     0.72067688
  WF centre and spread   13  (  0.906545,  3.735191,  1.484602 )     0.72067688
  WF centre and spread   14  (  3.745413,  0.907860,  1.484602 )     0.73289101
  WF centre and spread   15  (  3.735191,  0.906545,  1.484602 )     0.72067688
  WF centre and spread   16  (  3.746727,  0.918082,  1.484602 )     0.72067688
  WF centre and spread   17  (  1.418777,  1.418777, -0.000000 )     0.73289153
  WF centre and spread   18  (  1.408555,  1.420091, -0.000000 )     0.72067740
  WF centre and spread   19  (  1.420091,  1.408555, -0.000000 )     0.72067740
  WF centre and spread   20  (  3.234496,  3.234496, -0.000000 )     0.73289085
  WF centre and spread   21  (  3.244718,  3.233182, -0.000000 )     0.72067672
  WF centre and spread   22  (  3.233182,  3.244718, -0.000000 )     0.72067672
  Sum of centres and spreads ( 39.552814, 39.552814, 16.330617 )    16.09542918

     11    -0.620E-03     0.0219960409       16.0954388691       1.89  <-- CONV
        O_D=      0.0006266 O_OD=      0.2826980 O_TOT=     16.0954389 <-- SPRD
 Delta: O_D= -0.7147654E-05 O_OD= -0.6128020E-03 O_TOT= -0.6199496E-03 <-- DLTA
 ------------------------------------------------------------------------------
 Cycle:     12
  WF centre and spread    1  (  2.326636,  2.326636,  1.484602 )     0.75448801
  WF centre and spread    2  (  2.326636,  2.326636,  1.484602 )     0.74880562
  WF centre and spread    3  (  2.326636,  2.326636,  1.484602 )     0.74880562
  WF centre and spread    4  (  2.326636,  2.326636,  1.484602 )     0.72451563
  WF centre and spread    5  (  2.326636,  2.326636,  1.484602 )     0.72403005
  WF centre and spread    6  ( -0.000000, -0.000000, -0.000000 )     0.75448854
  WF centre and spread    7  ( -0.000000, -0.000000, -0.000000 )     0.74880614
  WF centre and spread    8  ( -0.000000, -0.000000, -0.000000 )     0.74880614
  WF centre and spread    9  ( -0.000000, -0.000000, -0.000000 )     0.72451616
  WF centre and spread   10  ( -0.000000, -0.000000, -0.000000 )     0.72403057
  WF centre and spread   11  (  0.907861,  3.745411,  1.484602 )     0.73260993
  WF centre and spread   12  (  0.918085,  3.746731,  1.484602 )     0.72040064
  WF centre and spread   13  (  0.906541,  3.735187,  1.484602 )     0.72040064
  WF centre and spread   14  (  3.745411,  0.907861,  1.484602 )     0.73260993
  WF centre and spread   15  (  3.735187,  0.906541,  1.484602 )     0.72040064
  WF centre and spread   16  (  3.746731,  0.918085,  1.484602 )     0.72040064
  WF centre and spread   17  (  1.418775,  1.418775, -0.000000 )     0.73261045
  WF centre and spread   18  (  1.408551,  1.420095, -0.000000 )     0.72040116
  WF centre and spread   19  (  1.420095,  1.408551, -0.000000 )     0.72040116
  WF centre and spread   20  (  3.234497,  3.234497, -0.000000 )     0.73260977
  WF centre and spread   21  (  3.244721,  3.233177, -0.000000 )     0.72040048
  WF centre and spread   22  (  3.233177,  3.244721, -0.000000 )     0.72040048
  Sum of centres and spreads ( 39.552814, 39.552814, 16.330617 )    16.09493838

     12    -0.491E-03     0.0207667107       16.0949480695       2.07  <-- CONV
        O_D=      0.0006204 O_OD=      0.2822134 O_TOT=     16.0949481 <-- SPRD
 Delta: O_D= -0.6204418E-05 O_OD= -0.4845952E-03 O_TOT= -0.4907996E-03 <-- DLTA
 ------------------------------------------------------------------------------
 Cycle:     13
  WF centre and spread    1  (  2.326636,  2.326636,  1.484602 )     0.75453350
  WF centre and spread    2  (  2.326636,  2.326636,  1.484602 )     0.74881426
  WF centre and spread    3  (  2.326636,  2.326636,  1.484602 )     0.74881426
  WF centre and spread    4  (  2.326636,  2.326636,  1.484602 )     0.72452780
  WF centre and spread    5  (  2.326636,  2.326636,  1.484602 )     0.72402943
  WF centre and spread    6  ( -0.000000, -0.000000, -0.000000 )     0.75453402
  WF centre and spread    7  ( -0.000000, -0.000000, -0.000000 )     0.74881478
  WF centre and spread    8  ( -0.000000, -0.000000, -0.000000 )     0.74881478
  WF centre and spread    9  ( -0.000000, -0.000000, -0.000000 )     0.72452833
  WF centre and spread   10  ( -0.000000, -0.000000, -0.000000 )     0.72402995
  WF centre and spread   11  (  0.907860,  3.745412,  1.484602 )     0.73258072
  WF centre and spread   12  (  0.918086,  3.746732,  1.484602 )     0.72037561
  WF centre and spread   13  (  0.906541,  3.735186,  1.484602 )     0.72037561
  WF centre and spread   14  (  3.745412,  0.907860,  1.484602 )     0.73258072
  WF centre and spread   15  (  3.735186,  0.906541,  1.484602 )     0.72037561
  WF centre and spread   16  (  3.746732,  0.918086,  1.484602 )     0.72037561
  WF centre and spread   17  (  1.418776,  1.418776, -0.000000 )     0.73258124
  WF centre and spread   18  (  1.408550,  1.420095, -0.000000 )     0.72037613
  WF centre and spread   19  (  1.420095,  1.408550, -0.000000 )     0.72037613
  WF centre and spread   20  (  3.234496,  3.234496, -0.000000 )     0.73258056
  WF centre and spread   21  (  3.244722,  3.233177, -0.000000 )     0.72037545
  WF centre and spread   22  (  3.233177,  3.244722, -0.000000 )     0.72037545
  Sum of centres and spreads ( 39.552814, 39.552814, 16.330617 )    16.09476995

     13    -0.168E-03     0.0139217588       16.0947796422       2.25  <-- CONV
        O_D=      0.0006182 O_OD=      0.2820472 O_TOT=     16.0947796 <-- SPRD
 Delta: O_D= -0.2199694E-05 O_OD= -0.1662276E-03 O_TOT= -0.1684273E-03 <-- DLTA
 ------------------------------------------------------------------------------
 Cycle:     14
  WF centre and spread    1  (  2.326636,  2.326636,  1.484602 )     0.75462920
  WF centre and spread    2  (  2.326636,  2.326636,  1.484602 )     0.74885814
  WF centre and spread    3  (  2.326636,  2.326636,  1.484602 )     0.74885814
  WF centre and spread    4  (  2.326636,  2.326636,  1.484602 )     0.72456932
  WF centre and spread    5  (  2.326636,  2.326636,  1.484602 )     0.72406632
  WF centre and spread    6  ( -0.000000, -0.000000, -0.000000 )     0.75462972
  WF centre and spread    7  ( -0.000000, -0.000000, -0.000000 )     0.74885866
  WF centre and spread    8  ( -0.000000, -0.000000, -0.000000 )     0.74885866
  WF centre and spread    9  ( -0.000000, -0.000000, -0.000000 )     0.72456984
  WF centre and spread   10  ( -0.000000, -0.000000, -0.000000 )     0.72406684
  WF centre and spread   11  (  0.907856,  3.745416,  1.484602 )     0.73250241
  WF centre and spread   12  (  0.918089,  3.746732,  1.484602 )     0.72032263
  WF centre and spread   13  (  0.906540,  3.735183,  1.484602 )     0.72032264
  WF centre and spread   14  (  3.745416,  0.907856,  1.484602 )     0.73250241
  WF centre and spread   15  (  3.735183,  0.906540,  1.484602 )     0.72032264
  WF centre and spread   16  (  3.746732,  0.918089,  1.484602 )     0.72032263
  WF centre and spread   17  (  1.418780,  1.418780, -0.000000 )     0.73250293
  WF centre and spread   18  (  1.408547,  1.420096, -0.000000 )     0.72032316
[...]
  WF centre and spread   15  (  3.735180,  0.906528,  1.484602 )     0.71969213
  WF centre and spread   16  (  3.746744,  0.918092,  1.484602 )     0.71969213
  WF centre and spread   17  (  1.418789,  1.418789, -0.000000 )     0.73176963
  WF centre and spread   18  (  1.408544,  1.420108, -0.000000 )     0.71969265
  WF centre and spread   19  (  1.420108,  1.408544, -0.000000 )     0.71969265
  WF centre and spread   20  (  3.234484,  3.234484, -0.000000 )     0.73176895
  WF centre and spread   21  (  3.244728,  3.233164, -0.000000 )     0.71969197
  WF centre and spread   22  (  3.233164,  3.244728, -0.000000 )     0.71969197
  Sum of centres and spreads ( 39.552814, 39.552814, 16.330617 )    16.09399656

    993    -0.234E-08     0.0000468506       16.0940062468     161.00  <-- CONV
        O_D=      0.0006062 O_OD=      0.2812859 O_TOT=     16.0940062 <-- SPRD
 Delta: O_D= -0.4387142E-09 O_OD= -0.1897051E-08 O_TOT= -0.2335764E-08 <-- DLTA
 ------------------------------------------------------------------------------
 Cycle:    994
  WF centre and spread    1  (  2.326636,  2.326636,  1.484602 )     0.75538358
  WF centre and spread    2  (  2.326636,  2.326636,  1.484602 )     0.74967644
  WF centre and spread    3  (  2.326636,  2.326636,  1.484602 )     0.74967644
  WF centre and spread    4  (  2.326636,  2.326636,  1.484602 )     0.72498273
  WF centre and spread    5  (  2.326636,  2.326636,  1.484602 )     0.72497049
  WF centre and spread    6  ( -0.000000, -0.000000, -0.000000 )     0.75538410
  WF centre and spread    7  ( -0.000000, -0.000000, -0.000000 )     0.74967696
  WF centre and spread    8  ( -0.000000, -0.000000, -0.000000 )     0.74967696
  WF centre and spread    9  ( -0.000000, -0.000000, -0.000000 )     0.72498325
  WF centre and spread   10  ( -0.000000, -0.000000, -0.000000 )     0.72497101
  WF centre and spread   11  (  0.907848,  3.745425,  1.484602 )     0.73176911
  WF centre and spread   12  (  0.918092,  3.746744,  1.484602 )     0.71969213
  WF centre and spread   13  (  0.906528,  3.735180,  1.484602 )     0.71969213
  WF centre and spread   14  (  3.745425,  0.907848,  1.484602 )     0.73176911
  WF centre and spread   15  (  3.735180,  0.906528,  1.484602 )     0.71969213
  WF centre and spread   16  (  3.746744,  0.918092,  1.484602 )     0.71969213
  WF centre and spread   17  (  1.418789,  1.418789, -0.000000 )     0.73176963
  WF centre and spread   18  (  1.408544,  1.420108, -0.000000 )     0.71969265
  WF centre and spread   19  (  1.420108,  1.408544, -0.000000 )     0.71969265
  WF centre and spread   20  (  3.234484,  3.234484, -0.000000 )     0.73176895
  WF centre and spread   21  (  3.244728,  3.233164, -0.000000 )     0.71969197
  WF centre and spread   22  (  3.233164,  3.244728, -0.000000 )     0.71969197
  Sum of centres and spreads ( 39.552814, 39.552814, 16.330617 )    16.09399656

    994    -0.786E-11     0.0000273621       16.0940062468     161.12  <-- CONV
        O_D=      0.0006062 O_OD=      0.2812859 O_TOT=     16.0940062 <-- SPRD
 Delta: O_D= -0.7753580E-12 O_OD= -0.7082057E-11 O_TOT= -0.7858603E-11 <-- DLTA
 ------------------------------------------------------------------------------
 Cycle:    995
  WF centre and spread    1  (  2.326636,  2.326636,  1.484602 )     0.75538357
  WF centre and spread    2  (  2.326636,  2.326636,  1.484602 )     0.74967644
  WF centre and spread    3  (  2.326636,  2.326636,  1.484602 )     0.74967644
  WF centre and spread    4  (  2.326636,  2.326636,  1.484602 )     0.72498273
  WF centre and spread    5  (  2.326636,  2.326636,  1.484602 )     0.72497051
  WF centre and spread    6  ( -0.000000, -0.000000, -0.000000 )     0.75538409
  WF centre and spread    7  ( -0.000000, -0.000000, -0.000000 )     0.74967696
  WF centre and spread    8  ( -0.000000, -0.000000, -0.000000 )     0.74967696
  WF centre and spread    9  ( -0.000000, -0.000000, -0.000000 )     0.72498325
  WF centre and spread   10  ( -0.000000, -0.000000, -0.000000 )     0.72497103
  WF centre and spread   11  (  0.907848,  3.745425,  1.484602 )     0.73176911
  WF centre and spread   12  (  0.918092,  3.746744,  1.484602 )     0.71969213
  WF centre and spread   13  (  0.906528,  3.735180,  1.484602 )     0.71969213
  WF centre and spread   14  (  3.745425,  0.907848,  1.484602 )     0.73176911
  WF centre and spread   15  (  3.735180,  0.906528,  1.484602 )     0.71969213
  WF centre and spread   16  (  3.746744,  0.918092,  1.484602 )     0.71969213
  WF centre and spread   17  (  1.418789,  1.418789, -0.000000 )     0.73176963
  WF centre and spread   18  (  1.408544,  1.420108, -0.000000 )     0.71969265
  WF centre and spread   19  (  1.420108,  1.408544, -0.000000 )     0.71969265
  WF centre and spread   20  (  3.234484,  3.234484, -0.000000 )     0.73176896
  WF centre and spread   21  (  3.244728,  3.233164, -0.000000 )     0.71969197
  WF centre and spread   22  (  3.233164,  3.244728, -0.000000 )     0.71969197
  Sum of centres and spreads ( 39.552814, 39.552814, 16.330617 )    16.09399655

    995    -0.126E-08     0.0000272943       16.0940062455     161.30  <-- CONV
        O_D=      0.0006062 O_OD=      0.2812859 O_TOT=     16.0940062 <-- SPRD
 Delta: O_D= -0.1121112E-09 O_OD= -0.1150395E-08 O_TOT= -0.1262507E-08 <-- DLTA
 ------------------------------------------------------------------------------
 Cycle:    996
  WF centre and spread    1  (  2.326636,  2.326636,  1.484602 )     0.75538355
  WF centre and spread    2  (  2.326636,  2.326636,  1.484602 )     0.74967643
  WF centre and spread    3  (  2.326636,  2.326636,  1.484602 )     0.74967643
  WF centre and spread    4  (  2.326636,  2.326636,  1.484602 )     0.72498273
  WF centre and spread    5  (  2.326636,  2.326636,  1.484602 )     0.72497055
  WF centre and spread    6  ( -0.000000, -0.000000, -0.000000 )     0.75538407
  WF centre and spread    7  ( -0.000000, -0.000000, -0.000000 )     0.74967695
  WF centre and spread    8  ( -0.000000, -0.000000, -0.000000 )     0.74967695
  WF centre and spread    9  ( -0.000000, -0.000000, -0.000000 )     0.72498325
  WF centre and spread   10  ( -0.000000, -0.000000, -0.000000 )     0.72497107
  WF centre and spread   11  (  0.907848,  3.745425,  1.484602 )     0.73176912
  WF centre and spread   12  (  0.918092,  3.746744,  1.484602 )     0.71969212
  WF centre and spread   13  (  0.906528,  3.735180,  1.484602 )     0.71969213
  WF centre and spread   14  (  3.745425,  0.907848,  1.484602 )     0.73176912
  WF centre and spread   15  (  3.735180,  0.906528,  1.484602 )     0.71969213
  WF centre and spread   16  (  3.746744,  0.918092,  1.484602 )     0.71969212
  WF centre and spread   17  (  1.418789,  1.418789, -0.000000 )     0.73176964
  WF centre and spread   18  (  1.408544,  1.420108, -0.000000 )     0.71969265
  WF centre and spread   19  (  1.420108,  1.408544, -0.000000 )     0.71969265
  WF centre and spread   20  (  3.234484,  3.234484, -0.000000 )     0.73176896
  WF centre and spread   21  (  3.244728,  3.233164, -0.000000 )     0.71969197
  WF centre and spread   22  (  3.233164,  3.244728, -0.000000 )     0.71969197
  Sum of centres and spreads ( 39.552814, 39.552814, 16.330617 )    16.09399655

    996    -0.162E-08     0.0000268779       16.0940062439     161.48  <-- CONV
        O_D=      0.0006062 O_OD=      0.2812859 O_TOT=     16.0940062 <-- SPRD
 Delta: O_D= -0.4041938E-09 O_OD= -0.1218021E-08 O_TOT= -0.1622215E-08 <-- DLTA
 ------------------------------------------------------------------------------
 Cycle:    997
  WF centre and spread    1  (  2.326636,  2.326636,  1.484602 )     0.75538355
  WF centre and spread    2  (  2.326636,  2.326636,  1.484602 )     0.74967643
  WF centre and spread    3  (  2.326636,  2.326636,  1.484602 )     0.74967643
  WF centre and spread    4  (  2.326636,  2.326636,  1.484602 )     0.72498273
  WF centre and spread    5  (  2.326636,  2.326636,  1.484602 )     0.72497055
  WF centre and spread    6  ( -0.000000, -0.000000, -0.000000 )     0.75538407
  WF centre and spread    7  ( -0.000000, -0.000000, -0.000000 )     0.74967695
  WF centre and spread    8  ( -0.000000, -0.000000, -0.000000 )     0.74967695
  WF centre and spread    9  ( -0.000000, -0.000000, -0.000000 )     0.72498325
  WF centre and spread   10  ( -0.000000, -0.000000, -0.000000 )     0.72497107
  WF centre and spread   11  (  0.907848,  3.745425,  1.484602 )     0.73176912
  WF centre and spread   12  (  0.918092,  3.746744,  1.484602 )     0.71969212
  WF centre and spread   13  (  0.906528,  3.735180,  1.484602 )     0.71969213
  WF centre and spread   14  (  3.745425,  0.907848,  1.484602 )     0.73176912
  WF centre and spread   15  (  3.735180,  0.906528,  1.484602 )     0.71969213
  WF centre and spread   16  (  3.746744,  0.918092,  1.484602 )     0.71969212
  WF centre and spread   17  (  1.418789,  1.418789, -0.000000 )     0.73176964
  WF centre and spread   18  (  1.408544,  1.420108, -0.000000 )     0.71969265
  WF centre and spread   19  (  1.420108,  1.408544, -0.000000 )     0.71969265
  WF centre and spread   20  (  3.234484,  3.234484, -0.000000 )     0.73176896
  WF centre and spread   21  (  3.244728,  3.233164, -0.000000 )     0.71969197
  WF centre and spread   22  (  3.233164,  3.244728, -0.000000 )     0.71969197
  Sum of centres and spreads ( 39.552814, 39.552814, 16.330617 )    16.09399655

    997    -0.282E-08     0.0000599409       16.0940062411     161.66  <-- CONV
        O_D=      0.0006062 O_OD=      0.2812859 O_TOT=     16.0940062 <-- SPRD
 Delta: O_D=  0.7541957E-11 O_OD= -0.2823819E-08 O_TOT= -0.2816275E-08 <-- DLTA
 ------------------------------------------------------------------------------
 Cycle:    998
  WF centre and spread    1  (  2.326636,  2.326636,  1.484602 )     0.75538356
  WF centre and spread    2  (  2.326636,  2.326636,  1.484602 )     0.74967645
  WF centre and spread    3  (  2.326636,  2.326636,  1.484602 )     0.74967645
  WF centre and spread    4  (  2.326636,  2.326636,  1.484602 )     0.72498273
  WF centre and spread    5  (  2.326636,  2.326636,  1.484602 )     0.72497047
  WF centre and spread    6  ( -0.000000, -0.000000, -0.000000 )     0.75538409
  WF centre and spread    7  ( -0.000000, -0.000000, -0.000000 )     0.74967697
  WF centre and spread    8  ( -0.000000, -0.000000, -0.000000 )     0.74967697
  WF centre and spread    9  ( -0.000000, -0.000000, -0.000000 )     0.72498325
  WF centre and spread   10  ( -0.000000, -0.000000, -0.000000 )     0.72497099
  WF centre and spread   11  (  0.907848,  3.745425,  1.484602 )     0.73176910
  WF centre and spread   12  (  0.918092,  3.746744,  1.484602 )     0.71969214
  WF centre and spread   13  (  0.906528,  3.735180,  1.484602 )     0.71969215
  WF centre and spread   14  (  3.745425,  0.907848,  1.484602 )     0.73176909
  WF centre and spread   15  (  3.735180,  0.906528,  1.484602 )     0.71969215
  WF centre and spread   16  (  3.746744,  0.918092,  1.484602 )     0.71969214
  WF centre and spread   17  (  1.418789,  1.418789, -0.000000 )     0.73176962
  WF centre and spread   18  (  1.408544,  1.420108, -0.000000 )     0.71969267
  WF centre and spread   19  (  1.420108,  1.408544, -0.000000 )     0.71969266
  WF centre and spread   20  (  3.234484,  3.234484, -0.000000 )     0.73176894
  WF centre and spread   21  (  3.244728,  3.233164, -0.000000 )     0.71969199
  WF centre and spread   22  (  3.233164,  3.244728, -0.000000 )     0.71969199
  Sum of centres and spreads ( 39.552814, 39.552814, 16.330617 )    16.09399656

    998     0.899E-08     0.0000357918       16.0940062501     161.85  <-- CONV
        O_D=      0.0006062 O_OD=      0.2812859 O_TOT=     16.0940063 <-- SPRD
 Delta: O_D=  0.1598532E-08 O_OD=  0.7388262E-08 O_TOT=  0.8986792E-08 <-- DLTA
 ------------------------------------------------------------------------------
 Cycle:    999
  WF centre and spread    1  (  2.326636,  2.326636,  1.484602 )     0.75538353
  WF centre and spread    2  (  2.326636,  2.326636,  1.484602 )     0.74967644
  WF centre and spread    3  (  2.326636,  2.326636,  1.484602 )     0.74967644
  WF centre and spread    4  (  2.326636,  2.326636,  1.484602 )     0.72498273
  WF centre and spread    5  (  2.326636,  2.326636,  1.484602 )     0.72497051
  WF centre and spread    6  ( -0.000000, -0.000000, -0.000000 )     0.75538406
  WF centre and spread    7  ( -0.000000, -0.000000, -0.000000 )     0.74967696
  WF centre and spread    8  ( -0.000000, -0.000000, -0.000000 )     0.74967696
  WF centre and spread    9  ( -0.000000, -0.000000, -0.000000 )     0.72498325
  WF centre and spread   10  ( -0.000000, -0.000000, -0.000000 )     0.72497103
  WF centre and spread   11  (  0.907848,  3.745425,  1.484602 )     0.73176910
  WF centre and spread   12  (  0.918092,  3.746744,  1.484602 )     0.71969214
  WF centre and spread   13  (  0.906528,  3.735180,  1.484602 )     0.71969214
  WF centre and spread   14  (  3.745425,  0.907848,  1.484602 )     0.73176910
  WF centre and spread   15  (  3.735180,  0.906528,  1.484602 )     0.71969214
  WF centre and spread   16  (  3.746744,  0.918092,  1.484602 )     0.71969214
  WF centre and spread   17  (  1.418789,  1.418789, -0.000000 )     0.73176962
  WF centre and spread   18  (  1.408544,  1.420108, -0.000000 )     0.71969266
  WF centre and spread   19  (  1.420108,  1.408544, -0.000000 )     0.71969266
  WF centre and spread   20  (  3.234484,  3.234484, -0.000000 )     0.73176895
  WF centre and spread   21  (  3.244728,  3.233164, -0.000000 )     0.71969198
  WF centre and spread   22  (  3.233164,  3.244728, -0.000000 )     0.71969198
  Sum of centres and spreads ( 39.552814, 39.552814, 16.330617 )    16.09399655

    999    -0.106E-07     0.0001305853       16.0940062395     162.03  <-- CONV
        O_D=      0.0006062 O_OD=      0.2812859 O_TOT=     16.0940062 <-- SPRD
 Delta: O_D= -0.3022624E-09 O_OD= -0.1032600E-07 O_TOT= -0.1062826E-07 <-- DLTA
 ------------------------------------------------------------------------------
 Cycle:   1000
  WF centre and spread    1  (  2.326636,  2.326636,  1.484602 )     0.75538348
  WF centre and spread    2  (  2.326636,  2.326636,  1.484602 )     0.74967643
  WF centre and spread    3  (  2.326636,  2.326636,  1.484602 )     0.74967643
  WF centre and spread    4  (  2.326636,  2.326636,  1.484602 )     0.72498273
  WF centre and spread    5  (  2.326636,  2.326636,  1.484602 )     0.72497059
  WF centre and spread    6  ( -0.000000, -0.000000, -0.000000 )     0.75538400
  WF centre and spread    7  ( -0.000000, -0.000000, -0.000000 )     0.74967696
  WF centre and spread    8  ( -0.000000, -0.000000, -0.000000 )     0.74967696
  WF centre and spread    9  ( -0.000000, -0.000000, -0.000000 )     0.72498325
  WF centre and spread   10  ( -0.000000, -0.000000, -0.000000 )     0.72497111
  WF centre and spread   11  (  0.907848,  3.745425,  1.484602 )     0.73176911
  WF centre and spread   12  (  0.918092,  3.746744,  1.484602 )     0.71969213
  WF centre and spread   13  (  0.906528,  3.735180,  1.484602 )     0.71969213
  WF centre and spread   14  (  3.745425,  0.907848,  1.484602 )     0.73176911
  WF centre and spread   15  (  3.735180,  0.906528,  1.484602 )     0.71969213
  WF centre and spread   16  (  3.746744,  0.918092,  1.484602 )     0.71969213
  WF centre and spread   17  (  1.418789,  1.418789, -0.000000 )     0.73176963
  WF centre and spread   18  (  1.408544,  1.420108, -0.000000 )     0.71969265
  WF centre and spread   19  (  1.420108,  1.408544, -0.000000 )     0.71969265
  WF centre and spread   20  (  3.234484,  3.234484, -0.000000 )     0.73176896
  WF centre and spread   21  (  3.244728,  3.233164, -0.000000 )     0.71969197
  WF centre and spread   22  (  3.233164,  3.244728, -0.000000 )     0.71969197
  Sum of centres and spreads ( 39.552814, 39.552814, 16.330617 )    16.09399654

   1000    -0.649E-08     0.0000759964       16.0940062330     162.20  <-- CONV
        O_D=      0.0006062 O_OD=      0.2812859 O_TOT=     16.0940062 <-- SPRD
 Delta: O_D= -0.1044604E-08 O_OD= -0.5445185E-08 O_TOT= -0.6489788E-08 <-- DLTA
 ------------------------------------------------------------------------------

 Writing checkpoint file tio.chk... done

 Final State
  WF centre and spread    1  (  2.326636,  2.326636,  1.484602 )     0.75538348
  WF centre and spread    2  (  2.326636,  2.326636,  1.484602 )     0.74967643
  WF centre and spread    3  (  2.326636,  2.326636,  1.484602 )     0.74967643
  WF centre and spread    4  (  2.326636,  2.326636,  1.484602 )     0.72498273
  WF centre and spread    5  (  2.326636,  2.326636,  1.484602 )     0.72497059
  WF centre and spread    6  ( -0.000000, -0.000000, -0.000000 )     0.75538400
  WF centre and spread    7  ( -0.000000, -0.000000, -0.000000 )     0.74967696
  WF centre and spread    8  ( -0.000000, -0.000000, -0.000000 )     0.74967696
  WF centre and spread    9  ( -0.000000, -0.000000, -0.000000 )     0.72498325
  WF centre and spread   10  ( -0.000000, -0.000000, -0.000000 )     0.72497111
  WF centre and spread   11  (  0.907848,  3.745425,  1.484602 )     0.73176911
  WF centre and spread   12  (  0.918092,  3.746744,  1.484602 )     0.71969213
  WF centre and spread   13  (  0.906528,  3.735180,  1.484602 )     0.71969213
  WF centre and spread   14  (  3.745425,  0.907848,  1.484602 )     0.73176911
  WF centre and spread   15  (  3.735180,  0.906528,  1.484602 )     0.71969213
  WF centre and spread   16  (  3.746744,  0.918092,  1.484602 )     0.71969213
  WF centre and spread   17  (  1.418789,  1.418789, -0.000000 )     0.73176963
  WF centre and spread   18  (  1.408544,  1.420108, -0.000000 )     0.71969265
  WF centre and spread   19  (  1.420108,  1.408544, -0.000000 )     0.71969265
  WF centre and spread   20  (  3.234484,  3.234484, -0.000000 )     0.73176896
  WF centre and spread   21  (  3.244728,  3.233164, -0.000000 )     0.71969197
  WF centre and spread   22  (  3.233164,  3.244728, -0.000000 )     0.71969197
  Sum of centres and spreads ( 39.552814, 39.552814, 16.330617 )    16.09399654

         Spreads (Ang^2)       Omega I      =    15.812114218
        ================       Omega D      =     0.000606156
                               Omega OD     =     0.281285859
    Final Spread (Ang^2)       Omega Total  =    16.094006233
 ------------------------------------------------------------------------------
 Time for wannierise          161.551 (sec)

 Writing checkpoint file tio.chk... done

 *---------------------------------------------------------------------------*
 |                               PLOTTING                                    |
 *---------------------------------------------------------------------------*


 Calculating interpolated band-structure

 Time to calculate interpolated band structure       5.820 (sec)

 Time for plotting              6.803 (sec)
 Total Execution Time         169.636 (sec)

 *===========================================================================*
 |                             TIMING INFORMATION                            |
 *===========================================================================*
 |    Tag                                                Ncalls      Time (s)|
 |---------------------------------------------------------------------------|
 |kmesh: get                                        :         1         0.172|
 |overlap: allocate                                 :         1         0.008|
 |overlap: read                                     :         1         1.036|
 |wann: main                                        :         1       161.550|
 |plot: main                                        :         1         6.803|
 *---------------------------------------------------------------------------*

 All done: wannier90 exiting
